4
	Energy:       0.0048280
C         -0.89926       -0.13045        0.47938
O         -1.36562        0.99344        0.55968
H         -0.94162       -0.79736        1.33343
H         -0.44218       -0.46298       -0.44607
