
                                 *****************
                                 * O   R   C   A *
                                 *****************

           --- An Ab Initio, DFT and Semiempirical electronic structure package ---

                  #######################################################
                  #                        -***-                        #
                  #          Department of theory and spectroscopy      #
                  #               Directorship: Frank Neese             #
                  #        Max Planck Institute fuer Kohlenforschung    #
                  #                Kaiser Wilhelm Platz 1               #
                  #                 D-45470 Muelheim/Ruhr               #
                  #                      Germany                        #
                  #                                                     #
                  #                  All rights reserved                #
                  #                        -***-                        #
                  #######################################################


                         Program Version 4.1.1  - RELEASE  -


 With contributions from (in alphabetic order):
   Daniel Aravena         : Magnetic Properties
   Michael Atanasov       : Ab Initio Ligand Field Theory
   Alexander A. Auer      : GIAO ZORA
   Ute Becker             : Parallelization
   Giovanni Bistoni       : ED, Open-shell LED
   Martin Brehm           : Molecular dynamics
   Dmytro Bykov           : SCF Hessian
   Vijay G. Chilkuri      : MRCI spin determinant printing
   Dipayan Datta          : RHF DLPNO-CCSD density
   Achintya Kumar Dutta   : EOM-CC, STEOM-CC
   Dmitry Ganyushin       : Spin-Orbit,Spin-Spin,Magnetic field MRCI
   Miquel Garcia          : C-PCM Hessian
   Yang Guo               : DLPNO-NEVPT2, CIM, IAO-localization
   Andreas Hansen         : Spin unrestricted coupled pair/coupled cluster methods
   Benjamin Helmich-Paris : CASSCF linear response (MC-RPA)
   Lee Huntington         : MR-EOM, pCC
   Robert Izsak           : Overlap fitted RIJCOSX, COSX-SCS-MP3, EOM
   Christian Kollmar      : KDIIS, OOCD, Brueckner-CCSD(T), CCSD density
   Simone Kossmann        : Meta GGA functionals, TD-DFT gradient, OOMP2, MP2 Hessian
   Martin Krupicka        : AUTO-CI
   Lucas Lang             : DCDCAS
   Dagmar Lenk            : GEPOL surface, SMD
   Dimitrios Liakos       : Extrapolation schemes; parallel MDCI
   Dimitrios Manganas     : ROCIS; embedding schemes
   Dimitrios Pantazis     : SARC Basis sets
   Taras Petrenko         : DFT Hessian,TD-DFT gradient, ASA, ECA, R-Raman, ABS, FL, XAS/XES, NRVS
   Peter Pinski           : DLPNO-MP2, DLPNO-MP2 Gradient
   Christoph Reimann      : Effective Core Potentials
   Marius Retegan         : Local ZFS, SOC
   Christoph Riplinger    : Optimizer, TS searches, QM/MM, DLPNO-CCSD(T), (RO)-DLPNO pert. Triples
   Tobias Risthaus        : Range-separated hybrids, TD-DFT gradient, RPA, STAB
   Michael Roemelt        : Restricted open shell CIS
   Masaaki Saitow         : Open-shell DLPNO
   Barbara Sandhoefer     : DKH picture change effects
   Avijit Sen             : IP-ROCIS
   Kantharuban Sivalingam : CASSCF convergence, NEVPT2, FIC-MRCI
   Bernardo de Souza      : ESD, SOC TD-DFT
   Georgi Stoychev        : AutoAux, RI-MP2 NMR
   Willem Van den Heuvel  : Paramagnetic NMR
   Boris Wezisla          : Elementary symmetry handling
   Frank Wennmohs         : Technical directorship


 We gratefully acknowledge several colleagues who have allowed us to
 interface, adapt or use parts of their codes:
   Stefan Grimme, W. Hujo, H. Kruse,             : VdW corrections, initial TS optimization,
                  C. Bannwarth                     DFT functionals, gCP, sTDA/sTD-DF
   Ed Valeev                                     : LibInt (2-el integral package), F12 methods
   Garnet Chan, S. Sharma, J. Yang, R. Olivares  : DMRG
   Ulf Ekstrom                                   : XCFun DFT Library
   Mihaly Kallay                                 : mrcc  (arbitrary order and MRCC methods)
   Andreas Klamt, Michael Diedenhofen            : otool_cosmo (COSMO solvation model)
   Jiri Pittner, Ondrej Demel                    : Mk-CCSD
   Frank Weinhold                                : gennbo (NPA and NBO analysis)
   Christopher J. Cramer and Donald G. Truhlar   : smd solvation model
   Lars Goerigk                                  : TD-DFT with DH, B97 family of functionals
   V. Asgeirsson, H. Jonsson                     : NEB implementation
   FAccTs GmbH                                   : IRC, NEB, NEB-TS, Multilevel


 Your calculation uses the libint2 library for the computation of 2-el integrals
 For citations please refer to: http://libint.valeyev.net

 This ORCA versions uses:
   CBLAS   interface :  Fast vector & matrix operations
   LAPACKE interface :  Fast linear algebra routines
   SCALAPACK package :  Parallel linear algebra routines


Your calculation utilizes the atom-pairwise dispersion correction
with the Becke-Johnson damping scheme (D3BJ)
Cite in your paper:
S.Grimme, S.Ehrlich, L.Goerigk, J Comput Chem, (2011), 32, 1456–1465 
S.Grimme, J.Antony, S.Ehrlich and H.Krieg, J.Chem.Phys., 132, (2010), 154104 
   

----- Orbital basis set information -----
Your calculation utilizes the basis: def2-SVP
   F. Weigend and R. Ahlrichs, Phys. Chem. Chem. Phys. 7, 3297 (2005).

----- AuxJ basis set information -----
Your calculation utilizes the auxiliary basis: def2/J
   F. Weigend, Phys. Chem. Chem. Phys. 8, 1057 (2006).

================================================================================
                                        WARNINGS
                       Please study these warnings very carefully!
================================================================================

WARNING: SinglePoint found together with IRC
         Switching on EnGrad - energy plus gradient calculation

WARNING: your system is open-shell and RHF/RKS was chosen
  ===> : WILL SWITCH to UHF/UKS


INFO   : the flag for use of LIBINT has been found!

================================================================================
                                       INPUT FILE
================================================================================
NAME = irc.inp
|  1> ! IRC Freq PBE0 RIJCOSX D3BJ def2-SVP def2/J PAL8
|  2> % maxcore 4000
|  3> %geom
|  4> calc_hess true
|  5> End
|  6> *xyz 0 2
|  7>   C   -1.19943288913804      0.21204800175962      0.10965122018880
|  8>   C   0.18522292215928     -0.32253128549448      0.26725354199914
|  9>   C   1.34209115410134      0.35006231175658     -0.38298656064507
| 10>   H   -1.38003463610275      1.07662434240213      0.77744719804746
| 11>   H   -1.96401529016285     -0.54571311545597      0.33599411839757
| 12>   H   -1.37439614218275      0.57482293583505     -0.91716421336501
| 13>   H   0.41504748248037     -0.94342938729387      1.13838703245412
| 14>   H   0.80241023067123     -0.76853312104451     -0.78010825473642
| 15>   H   1.15756402368911      1.18034494528057     -1.06843795534161
| 16>   H   2.34206314448508      0.22632437225488      0.03726387300103
| 17> 
| 18> *
| 19> 
| 20>                          ****END OF INPUT****
================================================================================

                     *******************************
                     * Energy+Gradient Calculation *
                     *******************************

---------------------------------
CARTESIAN COORDINATES (ANGSTROEM)
---------------------------------
  C     -1.199433    0.212048    0.109651
  C      0.185223   -0.322531    0.267254
  C      1.342091    0.350062   -0.382987
  H     -1.380035    1.076624    0.777447
  H     -1.964015   -0.545713    0.335994
  H     -1.374396    0.574823   -0.917164
  H      0.415047   -0.943429    1.138387
  H      0.802410   -0.768533   -0.780108
  H      1.157564    1.180345   -1.068438
  H      2.342063    0.226324    0.037264

----------------------------
CARTESIAN COORDINATES (A.U.)
----------------------------
  NO LB      ZA    FRAG     MASS         X           Y           Z
   0 C     6.0000    0    12.011   -2.266600    0.400713    0.207211
   1 C     6.0000    0    12.011    0.350021   -0.609496    0.505036
   2 C     6.0000    0    12.011    2.536185    0.661522   -0.723740
   3 H     1.0000    0     1.008   -2.607888    2.034525    1.469162
   4 H     1.0000    0     1.008   -3.711451   -1.031248    0.634937
   5 H     1.0000    0     1.008   -2.597232    1.086258   -1.733189
   6 H     1.0000    0     1.008    0.784326   -1.782823    2.151240
   7 H     1.0000    0     1.008    1.516336   -1.452317   -1.474191
   8 H     1.0000    0     1.008    2.187479    2.230529   -2.019055
   9 H     1.0000    0     1.008    4.425858    0.427691    0.070419

--------------------------------
INTERNAL COORDINATES (ANGSTROEM)
--------------------------------
 C      0   0   0     0.000000000000     0.00000000     0.00000000
 C      1   0   0     1.492610204293     0.00000000     0.00000000
 C      2   1   0     1.487796506323   120.88223652     0.00000000
 H      1   2   3     1.107276256338   111.54775347   280.91067409
 H      1   2   3     1.100008757370   112.10795443   160.31194154
 H      1   2   3     1.102981290546   111.29985698    39.31165850
 H      2   1   3     1.094169703262   118.82621545   156.33435670
 H      2   1   3     1.294914879196   118.69226751   295.32026594
 H      3   2   1     1.092365839763   119.11114207   353.43595449
 H      3   2   1     1.091725920826   119.52107522   155.21847246

---------------------------
INTERNAL COORDINATES (A.U.)
---------------------------
 C      0   0   0     0.000000000000     0.00000000     0.00000000
 C      1   0   0     2.820624510811     0.00000000     0.00000000
 C      2   1   0     2.811527939955   120.88223652     0.00000000
 H      1   2   3     2.092448879072   111.54775347   280.91067409
 H      1   2   3     2.078715296344   112.10795443   160.31194154
 H      1   2   3     2.084332569970   111.29985698    39.31165850
 H      2   1   3     2.067681083200   118.82621545   156.33435670
 H      2   1   3     2.447034488420   118.69226751   295.32026594
 H      3   2   1     2.064272275203   119.11114207   353.43595449
 H      3   2   1     2.063063003665   119.52107522   155.21847246

---------------------
BASIS SET INFORMATION
---------------------
There are 2 groups of distinct atoms

 Group   1 Type C   : 7s4p1d contracted to 3s2p1d pattern {511/31/1}
 Group   2 Type H   : 4s1p contracted to 2s1p pattern {31/1}

Atom   0C    basis set group =>   1
Atom   1C    basis set group =>   1
Atom   2C    basis set group =>   1
Atom   3H    basis set group =>   2
Atom   4H    basis set group =>   2
Atom   5H    basis set group =>   2
Atom   6H    basis set group =>   2
Atom   7H    basis set group =>   2
Atom   8H    basis set group =>   2
Atom   9H    basis set group =>   2
-------------------------------
AUXILIARY BASIS SET INFORMATION
-------------------------------
There are 2 groups of distinct atoms

 Group   1 Type C   : 12s5p4d2f1g contracted to 6s4p3d1f1g pattern {711111/2111/211/2/1}
 Group   2 Type H   : 5s2p1d contracted to 3s1p1d pattern {311/2/1}

Atom   0C    basis set group =>   1
Atom   1C    basis set group =>   1
Atom   2C    basis set group =>   1
Atom   3H    basis set group =>   2
Atom   4H    basis set group =>   2
Atom   5H    basis set group =>   2
Atom   6H    basis set group =>   2
Atom   7H    basis set group =>   2
Atom   8H    basis set group =>   2
Atom   9H    basis set group =>   2
[1621345380.830981] [ty2019:19488:0]            sys.c:618  UCX  ERROR shmget(size=2097152 flags=0xfb0) for mm_recv_desc failed: Operation not permitted, please check shared memory limits by 'ipcs -l'
[1621345380.831039] [ty2019:19484:0]            sys.c:618  UCX  ERROR shmget(size=2097152 flags=0xfb0) for mm_recv_desc failed: Operation not permitted, please check shared memory limits by 'ipcs -l'
[1621345380.831407] [ty2019:19485:0]            sys.c:618  UCX  ERROR shmget(size=2097152 flags=0xfb0) for mm_recv_desc failed: Operation not permitted, please check shared memory limits by 'ipcs -l'
[1621345380.831508] [ty2019:19489:0]            sys.c:618  UCX  ERROR shmget(size=2097152 flags=0xfb0) for mm_recv_desc failed: Operation not permitted, please check shared memory limits by 'ipcs -l'
[1621345380.831577] [ty2019:19487:0]            sys.c:618  UCX  ERROR shmget(size=2097152 flags=0xfb0) for mm_recv_desc failed: Operation not permitted, please check shared memory limits by 'ipcs -l'
[1621345380.831764] [ty2019:19486:0]            sys.c:618  UCX  ERROR shmget(size=2097152 flags=0xfb0) for mm_recv_desc failed: Operation not permitted, please check shared memory limits by 'ipcs -l'
[1621345380.832028] [ty2019:19490:0]            sys.c:618  UCX  ERROR shmget(size=2097152 flags=0xfb0) for mm_recv_desc failed: Operation not permitted, please check shared memory limits by 'ipcs -l'
[1621345380.832144] [ty2019:19491:0]            sys.c:618  UCX  ERROR shmget(size=2097152 flags=0xfb0) for mm_recv_desc failed: Operation not permitted, please check shared memory limits by 'ipcs -l'
[1621345380.842555] [ty2019:19486:0]            sys.c:618  UCX  ERROR shmget(size=2097152 flags=0xb80) for ucp_am_bufs failed: Operation not permitted, please check shared memory limits by 'ipcs -l'
[1621345380.842669] [ty2019:19489:0]            sys.c:618  UCX  ERROR shmget(size=2097152 flags=0xb80) for ucp_am_bufs failed: Operation not permitted, please check shared memory limits by 'ipcs -l'
[1621345380.842866] [ty2019:19490:0]            sys.c:618  UCX  ERROR shmget(size=2097152 flags=0xb80) for ucp_am_bufs failed: Operation not permitted, please check shared memory limits by 'ipcs -l'
[1621345380.842906] [ty2019:19484:0]            sys.c:618  UCX  ERROR shmget(size=2097152 flags=0xb80) for ucp_am_bufs failed: Operation not permitted, please check shared memory limits by 'ipcs -l'
[1621345380.847481] [ty2019:19488:0]            sys.c:618  UCX  ERROR shmget(size=2097152 flags=0xb80) for ucp_am_bufs failed: Operation not permitted, please check shared memory limits by 'ipcs -l'
[1621345380.847511] [ty2019:19485:0]            sys.c:618  UCX  ERROR shmget(size=2097152 flags=0xb80) for ucp_am_bufs failed: Operation not permitted, please check shared memory limits by 'ipcs -l'
[1621345380.849572] [ty2019:19491:0]            sys.c:618  UCX  ERROR shmget(size=2097152 flags=0xb80) for ucp_am_bufs failed: Operation not permitted, please check shared memory limits by 'ipcs -l'
[1621345380.850415] [ty2019:19487:0]            sys.c:618  UCX  ERROR shmget(size=2097152 flags=0xb80) for ucp_am_bufs failed: Operation not permitted, please check shared memory limits by 'ipcs -l'


           ************************************************************
           *        Program running with 8 parallel MPI-processes     *
           *              working on a common directory               *
           ************************************************************
------------------------------------------------------------------------------
                           ORCA GTO INTEGRAL CALCULATION
                           -- RI-GTO INTEGRALS CHOSEN --
------------------------------------------------------------------------------

                         BASIS SET STATISTICS AND STARTUP INFO

Gaussian basis set:
 # of primitive gaussian shells          ...   71
 # of primitive gaussian functions       ...  121
 # of contracted shells                  ...   39
 # of contracted basis functions         ...   77
 Highest angular momentum                ...    2
 Maximum contraction depth               ...    5
Auxiliary gaussian basis set:
 # of primitive gaussian shells          ...  128
 # of primitive gaussian functions       ...  322
 # of contracted shells                  ...   80
 # of contracted aux-basis functions     ...  224
 Highest angular momentum                ...    4
 Maximum contraction depth               ...    7
Ratio of auxiliary to basis functions    ...  2.91
Integral package used                  ... LIBINT
 One Electron integrals                  ... done
 Ordering auxiliary basis shells         ... done
 Integral threshhold             Thresh  ...  2.500e-11
 Primitive cut-off               TCut    ...  2.500e-12
 Pre-screening matrix                    ... done
 Shell pair data                         ... 
 Ordering of the shell pairs             ... done (   0.000 sec) 778 of 780 pairs
 Determination of significant pairs      ... done (   0.000 sec)
 Creation of shell pair data             ... done (   0.000 sec)
 Storage of shell pair data              ... done (   0.003 sec)
 Shell pair data done in (   0.003 sec)
 Computing two index integrals           ... done
 Cholesky decomposition of the V-matrix  ... done


Timings:
 Total evaluation time                   ...   0.146 sec (  0.002 min)
 One electron matrix time                ...   0.015 sec (  0.000 min) = 10.4%
 Schwartz matrix evaluation time         ...   0.110 sec (  0.002 min) = 75.4%
 Two index repulsion integral time       ...   0.001 sec (  0.000 min) =  0.7%
 Cholesky decomposition of V             ...   0.001 sec (  0.000 min) =  0.8%
 Three index repulsion integral time     ...   0.000 sec (  0.000 min) =  0.0%

[1621345381.669117] [ty2019:19526:0]            sys.c:618  UCX  ERROR shmget(size=2097152 flags=0xfb0) for mm_recv_desc failed: Operation not permitted, please check shared memory limits by 'ipcs -l'
[1621345381.669335] [ty2019:19525:0]            sys.c:618  UCX  ERROR shmget(size=2097152 flags=0xfb0) for mm_recv_desc failed: Operation not permitted, please check shared memory limits by 'ipcs -l'
[1621345381.675972] [ty2019:19527:0]            sys.c:618  UCX  ERROR shmget(size=2097152 flags=0xfb0) for mm_recv_desc failed: Operation not permitted, please check shared memory limits by 'ipcs -l'
[1621345381.676117] [ty2019:19528:0]            sys.c:618  UCX  ERROR shmget(size=2097152 flags=0xfb0) for mm_recv_desc failed: Operation not permitted, please check shared memory limits by 'ipcs -l'
[1621345381.676459] [ty2019:19521:0]            sys.c:618  UCX  ERROR shmget(size=2097152 flags=0xfb0) for mm_recv_desc failed: Operation not permitted, please check shared memory limits by 'ipcs -l'
[1621345381.676710] [ty2019:19522:0]            sys.c:618  UCX  ERROR shmget(size=2097152 flags=0xfb0) for mm_recv_desc failed: Operation not permitted, please check shared memory limits by 'ipcs -l'
[1621345381.678949] [ty2019:19524:0]            sys.c:618  UCX  ERROR shmget(size=2097152 flags=0xfb0) for mm_recv_desc failed: Operation not permitted, please check shared memory limits by 'ipcs -l'
[1621345381.679119] [ty2019:19523:0]            sys.c:618  UCX  ERROR shmget(size=2097152 flags=0xfb0) for mm_recv_desc failed: Operation not permitted, please check shared memory limits by 'ipcs -l'
[1621345381.687636] [ty2019:19525:0]            sys.c:618  UCX  ERROR shmget(size=2097152 flags=0xb80) for ucp_am_bufs failed: Operation not permitted, please check shared memory limits by 'ipcs -l'
[1621345381.687628] [ty2019:19527:0]            sys.c:618  UCX  ERROR shmget(size=2097152 flags=0xb80) for ucp_am_bufs failed: Operation not permitted, please check shared memory limits by 'ipcs -l'
[1621345381.687644] [ty2019:19523:0]            sys.c:618  UCX  ERROR shmget(size=2097152 flags=0xb80) for ucp_am_bufs failed: Operation not permitted, please check shared memory limits by 'ipcs -l'
[1621345381.687659] [ty2019:19524:0]            sys.c:618  UCX  ERROR shmget(size=2097152 flags=0xb80) for ucp_am_bufs failed: Operation not permitted, please check shared memory limits by 'ipcs -l'
[1621345381.688077] [ty2019:19528:0]            sys.c:618  UCX  ERROR shmget(size=2097152 flags=0xb80) for ucp_am_bufs failed: Operation not permitted, please check shared memory limits by 'ipcs -l'
[1621345381.688391] [ty2019:19526:0]            sys.c:618  UCX  ERROR shmget(size=2097152 flags=0xb80) for ucp_am_bufs failed: Operation not permitted, please check shared memory limits by 'ipcs -l'
[1621345381.688592] [ty2019:19521:0]            sys.c:618  UCX  ERROR shmget(size=2097152 flags=0xb80) for ucp_am_bufs failed: Operation not permitted, please check shared memory limits by 'ipcs -l'


           ************************************************************
           *        Program running with 8 parallel MPI-processes     *
           *              working on a common directory               *
           ************************************************************
[1621345381.691754] [ty2019:19522:0]            sys.c:618  UCX  ERROR shmget(size=2097152 flags=0xb80) for ucp_am_bufs failed: Operation not permitted, please check shared memory limits by 'ipcs -l'
-------------------------------------------------------------------------------
                                 ORCA SCF
-------------------------------------------------------------------------------

------------
SCF SETTINGS
------------
Hamiltonian:
 Density Functional     Method          .... DFT(GTOs)
 Exchange Functional    Exchange        .... PBE
   PBE kappa parameter   XKappa         ....  0.804000
   PBE mue parameter    XMuePBE         ....  0.219520
 Correlation Functional Correlation     .... PBE
   PBE beta parameter  CBetaPBE         ....  0.066725
 LDA part of GGA corr.  LDAOpt          .... PW91-LDA
 Gradients option       PostSCFGGA      .... off
 Hybrid DFT is turned on
   Fraction HF Exchange ScalHFX         ....  0.250000
   Scaling of DF-GGA-X  ScalDFX         ....  0.750000
   Scaling of DF-GGA-C  ScalDFC         ....  1.000000
   Scaling of DF-LDA-C  ScalLDAC        ....  1.000000
   Perturbative correction              ....  0.000000
   Density functional embedding theory  .... OFF
   NL short-range parameter             ....  6.900000
 RI-approximation to the Coulomb term is turned on
   Number of auxiliary basis functions  .... 224
   RIJ-COSX (HFX calculated with COS-X)).... on


General Settings:
 Integral files         IntName         .... irc
 Hartree-Fock type      HFTyp           .... UHF
 Total Charge           Charge          ....    0
 Multiplicity           Mult            ....    2
 Number of Electrons    NEL             ....   25
 Basis Dimension        Dim             ....   77
 Nuclear Repulsion      ENuc            ....     76.0822066448 Eh

Convergence Acceleration:
 DIIS                   CNVDIIS         .... on
   Start iteration      DIISMaxIt       ....    12
   Startup error        DIISStart       ....  0.200000
   # of expansion vecs  DIISMaxEq       ....     5
   Bias factor          DIISBfac        ....   1.050
   Max. coefficient     DIISMaxC        ....  10.000
 Newton-Raphson         CNVNR           .... off
 SOSCF                  CNVSOSCF        .... off
 Level Shifting         CNVShift        .... on
   Level shift para.    LevelShift      ....    0.2500
   Turn off err/grad.   ShiftErr        ....    0.0010
 Zerner damping         CNVZerner       .... off
 Static damping         CNVDamp         .... on
   Fraction old density DampFac         ....    0.7000
   Max. Damping (<1)    DampMax         ....    0.9800
   Min. Damping (>=0)   DampMin         ....    0.0000
   Turn off err/grad.   DampErr         ....    0.1000
 Fernandez-Rico         CNVRico         .... off

SCF Procedure:
 Maximum # iterations   MaxIter         ....   125
 SCF integral mode      SCFMode         .... Direct
   Integral package                     .... LIBINT
 Reset frequency        DirectResetFreq ....    20
 Integral Threshold     Thresh          ....  2.500e-11 Eh
 Primitive CutOff       TCut            ....  2.500e-12 Eh

Convergence Tolerance:
 Convergence Check Mode ConvCheckMode   .... Total+1el-Energy
 Convergence forced     ConvForced      .... 0
 Energy Change          TolE            ....  1.000e-08 Eh
 1-El. energy change                    ....  1.000e-05 Eh
 DIIS Error             TolErr          ....  5.000e-07


Diagonalization of the overlap matrix:
Smallest eigenvalue                        ... 3.316e-03
Time for diagonalization                   ...    0.003 sec
Threshold for overlap eigenvalues          ... 1.000e-08
Number of eigenvalues below threshold      ... 0
Time for construction of square roots      ...    0.001 sec
Total time needed                          ...    0.004 sec

-------------------
DFT GRID GENERATION
-------------------

General Integration Accuracy     IntAcc      ...  4.340
Radial Grid Type                 RadialGrid  ... Gauss-Chebyshev
Angular Grid (max. acc.)         AngularGrid ... Lebedev-110
Angular grid pruning method      GridPruning ... 3 (G Style)
Weight generation scheme         WeightScheme... Becke
Basis function cutoff            BFCut       ...    1.0000e-11
Integration weight cutoff        WCut        ...    1.0000e-14
Grids for H and He will be reduced by one unit

# of grid points (after initial pruning)     ...  10526 (   0.0 sec)
# of grid points (after weights+screening)   ...  10034 (   0.0 sec)
nearest neighbour list constructed           ...    0.0 sec
Grid point re-assignment to atoms done       ...    0.0 sec
Grid point division into batches done        ...    0.0 sec
Reduced shell lists constructed in    0.0 sec

Total number of grid points                  ...    10034
Total number of batches                      ...      162
Average number of points per batch           ...       61
Average number of grid points per atom       ...     1003
Average number of shells per batch           ...    36.23 (92.89%)
Average number of basis functions per batch  ...    71.95 (93.45%)
Average number of large shells per batch     ...    33.95 (93.73%)
Average number of large basis fcns per batch ...    66.86 (92.92%)
Maximum spatial batch extension              ...   2.60,  2.49,  2.24 au
Average spatial batch extension              ...   0.18,  0.19,  0.19 au

Time for grid setup =    0.027 sec

------------------------------
INITIAL GUESS: MODEL POTENTIAL
------------------------------
Loading Hartree-Fock densities                     ... done
Calculating cut-offs                               ... done
Setting up the integral package                    ... done
Initializing the effective Hamiltonian             ... done
Starting the Coulomb interaction                   ... done (   0.0 sec)
Reading the grid                                   ... done
Mapping shells                                     ... done
Starting the XC term evaluation                    ... done (   0.0 sec)
  promolecular density results
     # of electrons  =     24.993555615
     EX              =    -17.362667848
     EC              =     -0.784318749
     EX+EC           =    -18.146986597
Transforming the Hamiltonian                       ... done (   0.0 sec)
Diagonalizing the Hamiltonian                      ... done (   0.0 sec)
Back transforming the eigenvectors                 ... done (   0.0 sec)
Now organizing SCF variables                       ... done
                      ------------------
                      INITIAL GUESS DONE (   0.1 sec)
                      ------------------
--------------------
COSX GRID GENERATION
--------------------

General Integration Accuracy     IntAcc      ...  3.340
Radial Grid Type                 RadialGrid  ... Gauss-Chebyshev
Angular Grid (max. acc.)         AngularGrid ... Lebedev-50
Angular grid pruning method      GridPruning ... 3 (G Style)
Weight generation scheme         WeightScheme... Becke
Basis function cutoff            BFCut       ...    1.0000e-11
Integration weight cutoff        WCut        ...    1.0000e-14
Grids for H and He will be reduced by one unit

# of grid points (after initial pruning)     ...   3980 (   0.0 sec)
# of grid points (after weights+screening)   ...   3791 (   0.0 sec)
nearest neighbour list constructed           ...    0.0 sec
Grid point re-assignment to atoms done       ...    0.0 sec
Grid point division into batches done        ...    0.0 sec
Reduced shell lists constructed in    0.0 sec

Total number of grid points                  ...     3791
Total number of batches                      ...       65
Average number of points per batch           ...       58
Average number of grid points per atom       ...      379
Average number of shells per batch           ...    34.50 (88.46%)
Average number of basis functions per batch  ...    68.50 (88.96%)
Average number of large shells per batch     ...    32.90 (95.36%)
Average number of large basis fcns per batch ...    65.30 (95.33%)
Maximum spatial batch extension              ...   2.72,  3.20,  2.74 au
Average spatial batch extension              ...   0.29,  0.31,  0.28 au

Overlap Fitting                  UseSFitting ... on
Constructing numerical overlap ... done (      0.0 sec)
Inverting numerical overlap    ... done (      0.0 sec)
Obtaining analytic overlap     ... done (      0.0 sec)
Final contraction and storage  ... done (      0.0 sec)


General Integration Accuracy     IntAcc      ...  3.670
Radial Grid Type                 RadialGrid  ... Gauss-Chebyshev
Angular Grid (max. acc.)         AngularGrid ... Lebedev-50
Angular grid pruning method      GridPruning ... 3 (G Style)
Weight generation scheme         WeightScheme... Becke
Basis function cutoff            BFCut       ...    1.0000e-11
Integration weight cutoff        WCut        ...    1.0000e-14
Grids for H and He will be reduced by one unit

# of grid points (after initial pruning)     ...   5170 (   0.0 sec)
# of grid points (after weights+screening)   ...   4910 (   0.0 sec)
nearest neighbour list constructed           ...    0.0 sec
Grid point re-assignment to atoms done       ...    0.0 sec
Grid point division into batches done        ...    0.0 sec
Reduced shell lists constructed in    0.0 sec

Total number of grid points                  ...     4910
Total number of batches                      ...       82
Average number of points per batch           ...       59
Average number of grid points per atom       ...      491
Average number of shells per batch           ...    35.08 (89.96%)
Average number of basis functions per batch  ...    69.58 (90.37%)
Average number of large shells per batch     ...    33.33 (95.01%)
Average number of large basis fcns per batch ...    65.83 (94.61%)
Maximum spatial batch extension              ...   2.66,  2.71,  2.76 au
Average spatial batch extension              ...   0.27,  0.26,  0.24 au

Overlap Fitting                  UseSFitting ... on
Constructing numerical overlap ... done (      0.0 sec)
Inverting numerical overlap    ... done (      0.0 sec)
Obtaining analytic overlap     ... done (      0.0 sec)
Final contraction and storage  ... done (      0.0 sec)


General Integration Accuracy     IntAcc      ...  4.010
Radial Grid Type                 RadialGrid  ... Gauss-Chebyshev
Angular Grid (max. acc.)         AngularGrid ... Lebedev-110
Angular grid pruning method      GridPruning ... 3 (G Style)
Weight generation scheme         WeightScheme... Becke
Basis function cutoff            BFCut       ...    1.0000e-11
Integration weight cutoff        WCut        ...    1.0000e-14
Grids for H and He will be reduced by one unit

# of grid points (after initial pruning)     ...   9080 (   0.0 sec)
# of grid points (after weights+screening)   ...   8662 (   0.0 sec)
nearest neighbour list constructed           ...    0.0 sec
Grid point re-assignment to atoms done       ...    0.0 sec
Grid point division into batches done        ...    0.0 sec
Reduced shell lists constructed in    0.0 sec

Total number of grid points                  ...     8662
Total number of batches                      ...      140
Average number of points per batch           ...       61
Average number of grid points per atom       ...      866
Average number of shells per batch           ...    36.05 (92.44%)
Average number of basis functions per batch  ...    71.63 (93.03%)
Average number of large shells per batch     ...    34.00 (94.31%)
Average number of large basis fcns per batch ...    66.95 (93.46%)
Maximum spatial batch extension              ...   2.64,  2.73,  2.29 au
Average spatial batch extension              ...   0.20,  0.21,  0.20 au

Overlap Fitting                  UseSFitting ... on
Constructing numerical overlap ... done (      0.0 sec)
Inverting numerical overlap    ... done (      0.0 sec)
Obtaining analytic overlap     ... done (      0.0 sec)
Final contraction and storage  ... done (      0.0 sec)

Time for X-Grid setup             =    0.110 sec
--------------
SCF ITERATIONS
--------------
ITER       Energy         Delta-E        Max-DP      RMS-DP      [F,P]     Damp
               ***  Starting incremental Fock matrix formation  ***
  0   -118.0671454126   0.000000000000 0.04873753  0.00183829  0.1609216 0.7000
  1   -118.1144605871  -0.047315174426 0.04139213  0.00142610  0.0869717 0.7000
                               ***Turning on DIIS***
  2   -118.1352443451  -0.020783758080 0.07660391  0.00256082  0.0355540 0.0000
  3   -118.1639190560  -0.028674710846 0.02458979  0.00093687  0.0449201 0.0000
  4   -118.1722198503  -0.008300794322 0.00806486  0.00028112  0.0088709 0.0000
  5   -118.1726774925  -0.000457642165 0.00254018  0.00011526  0.0022252 0.0000
  6   -118.1727359701  -0.000058477646 0.00205834  0.00008885  0.0006737 0.0000
               *** Restarting incremental Fock matrix formation ***
                                   *** Resetting DIIS ***
  7   -118.1727447036  -0.000008733471 0.00076503  0.00002934  0.0003085 0.0000
  8   -118.1727474990  -0.000002795433 0.00046836  0.00001253  0.0003789 0.0000
  9   -118.1727483047  -0.000000805626 0.00034249  0.00001014  0.0000323 0.0000
 10   -118.1727486064  -0.000000301766 0.00015376  0.00000436  0.0000259 0.0000
 11   -118.1727486677  -0.000000061286 0.00011260  0.00000296  0.0000050 0.0000
                            ***DIIS convergence achieved***

               *****************************************************
               *                     SUCCESS                       *
               *           SCF CONVERGED AFTER  12 CYCLES          *
               *****************************************************

Setting up the final grid:

General Integration Accuracy     IntAcc      ...  4.670
Radial Grid Type                 RadialGrid  ... Gauss-Chebyshev
Angular Grid (max. acc.)         AngularGrid ... Lebedev-302
Angular grid pruning method      GridPruning ... 3 (G Style)
Weight generation scheme         WeightScheme... Becke
Basis function cutoff            BFCut       ...    1.0000e-11
Integration weight cutoff        WCut        ...    1.0000e-14
Grids for H and He will be reduced by one unit

# of grid points (after initial pruning)     ...  42394 (   0.0 sec)
# of grid points (after weights+screening)   ...  39943 (   0.0 sec)
nearest neighbour list constructed           ...    0.0 sec
Grid point re-assignment to atoms done       ...    0.0 sec
Grid point division into batches done        ...    0.1 sec
Reduced shell lists constructed in    0.1 sec

Total number of grid points                  ...    39943
Total number of batches                      ...      630
Average number of points per batch           ...       63
Average number of grid points per atom       ...     3994
Average number of shells per batch           ...    37.24 (95.48%)
Average number of basis functions per batch  ...    74.16 (96.31%)
Average number of large shells per batch     ...    34.68 (93.12%)
Average number of large basis fcns per batch ...    68.38 (92.20%)
Maximum spatial batch extension              ...   1.88,  2.17,  1.94 au
Average spatial batch extension              ...   0.12,  0.13,  0.12 au

Final grid set up in    0.1 sec
Final integration                            ... done (   0.0 sec)
Change in XC energy                          ...     0.000087557
Integrated number of electrons               ...    24.999906856
Previous integrated no of electrons          ...    24.999066965
Old exchange energy                            =     -4.481564474 Eh
New exchange energy                            =     -4.481518904 Eh
Exchange energy change after final integration =      0.000045570 Eh
Total energy after final integration           =   -118.172615553 Eh
Final COS-X integration done in                =     0.108 sec

----------------
TOTAL SCF ENERGY
----------------

Total Energy       :         -118.17261555 Eh           -3215.64035 eV

Components:
Nuclear Repulsion  :           76.08220664 Eh            2070.30209 eV
Electronic Energy  :         -194.25482220 Eh           -5285.94244 eV
One Electron Energy:         -307.79877112 Eh           -8375.63037 eV
Two Electron Energy:          113.54394892 Eh            3089.68793 eV

Virial components:
Potential Energy   :         -234.89045092 Eh           -6391.69412 eV
Kinetic Energy     :          116.71783537 Eh            3176.05377 eV
Virial Ratio       :            2.01246408


DFT components:
N(Alpha)           :       12.999947974227 electrons
N(Beta)            :       11.999958881590 electrons
N(Total)           :       24.999906855817 electrons
E(X)               :      -13.366496714660 Eh       
E(C)               :       -0.797126481939 Eh       
E(XC)              :      -14.163623196600 Eh       
DFET-embed. en.    :        0.000000000000 Eh       

---------------
SCF CONVERGENCE
---------------

  Last Energy change         ...   -1.1520e-08  Tolerance :   1.0000e-08
  Last MAX-Density change    ...    0.0000e+00  Tolerance :   1.0000e-07
  Last RMS-Density change    ...    0.0000e+00  Tolerance :   5.0000e-09
  Last DIIS Error            ...    9.0451e-07  Tolerance :   5.0000e-07

             **** THE GBW FILE WAS UPDATED (irc.gbw) ****
             **** DENSITY FILE WAS UPDATED (irc.scfp.tmp) ****
             **** ENERGY FILE WAS UPDATED (irc.en.tmp) ****
----------------------
UHF SPIN CONTAMINATION
----------------------

Warning: in a DFT calculation there is little theoretical justification to 
         calculate <S**2> as in Hartree-Fock theory. We will do it anyways
         but you should keep in mind that the values have only limited relevance

Expectation value of <S**2>     :     0.759401
Ideal value S*(S+1) for S=0.5   :     0.750000
Deviation                       :     0.009401

----------------
ORBITAL ENERGIES
----------------
                 SPIN UP ORBITALS
  NO   OCC          E(Eh)            E(eV) 
   0   1.0000     -10.243945      -278.7519 
   1   1.0000     -10.236577      -278.5514 
   2   1.0000     -10.229258      -278.3523 
   3   1.0000      -0.825127       -22.4529 
   4   1.0000      -0.708479       -19.2787 
   5   1.0000      -0.577140       -15.7048 
   6   1.0000      -0.490004       -13.3337 
   7   1.0000      -0.457380       -12.4460 
   8   1.0000      -0.425903       -11.5894 
   9   1.0000      -0.394408       -10.7324 
  10   1.0000      -0.369040       -10.0421 
  11   1.0000      -0.331758        -9.0276 
  12   1.0000      -0.147281        -4.0077 
  13   0.0000       0.070866         1.9284 
  14   0.0000       0.105253         2.8641 
  15   0.0000       0.111416         3.0318 
  16   0.0000       0.119309         3.2466 
  17   0.0000       0.152799         4.1579 
  18   0.0000       0.160392         4.3645 
  19   0.0000       0.161736         4.4011 
  20   0.0000       0.248597         6.7647 
  21   0.0000       0.292146         7.9497 
  22   0.0000       0.396171        10.7804 
  23   0.0000       0.413571        11.2538 
  24   0.0000       0.427077        11.6214 
  25   0.0000       0.502263        13.6673 
  26   0.0000       0.513479        13.9725 
  27   0.0000       0.546533        14.8719 
  28   0.0000       0.555623        15.1193 
  29   0.0000       0.632868        17.2212 
  30   0.0000       0.653511        17.7829 
  31   0.0000       0.667588        18.1660 
  32   0.0000       0.669697        18.2234 
  33   0.0000       0.682534        18.5727 
  34   0.0000       0.697438        18.9783 
  35   0.0000       0.702410        19.1136 
  36   0.0000       0.709893        19.3172 
  37   0.0000       0.717465        19.5232 
  38   0.0000       0.754350        20.5269 
  39   0.0000       0.911380        24.7999 
  40   0.0000       0.953025        25.9331 
  41   0.0000       1.127170        30.6718 
  42   0.0000       1.245015        33.8786 
  43   0.0000       1.329231        36.1702 
  44   0.0000       1.429158        38.8894 
  45   0.0000       1.492894        40.6237 
  46   0.0000       1.542244        41.9666 
  47   0.0000       1.548836        42.1460 
  48   0.0000       1.568892        42.6917 
  49   0.0000       1.652518        44.9673 
  50   0.0000       1.709399        46.5151 
  51   0.0000       1.736835        47.2617 
  52   0.0000       1.773752        48.2662 
  53   0.0000       1.794912        48.8420 
  54   0.0000       1.805121        49.1198 
  55   0.0000       1.819079        49.4997 
  56   0.0000       1.899311        51.6829 
  57   0.0000       1.930958        52.5440 
  58   0.0000       1.965482        53.4835 
  59   0.0000       2.047860        55.7251 
  60   0.0000       2.102718        57.2179 
  61   0.0000       2.170140        59.0525 
  62   0.0000       2.223546        60.5058 
  63   0.0000       2.275625        61.9229 
  64   0.0000       2.363543        64.3153 
  65   0.0000       2.445467        66.5445 
  66   0.0000       2.465222        67.0821 
  67   0.0000       2.494792        67.8867 
  68   0.0000       2.546186        69.2852 
  69   0.0000       2.602096        70.8066 
  70   0.0000       2.757457        75.0342 
  71   0.0000       2.772899        75.4544 
  72   0.0000       2.871580        78.1397 
  73   0.0000       2.948702        80.2383 
  74   0.0000       2.961977        80.5995 
  75   0.0000       3.026927        82.3669 
  76   0.0000       3.150899        85.7403 

                 SPIN DOWN ORBITALS
  NO   OCC          E(Eh)            E(eV) 
   0   1.0000     -10.234849      -278.5044 
   1   1.0000     -10.229740      -278.3654 
   2   1.0000     -10.227679      -278.3093 
   3   1.0000      -0.806482       -21.9455 
   4   1.0000      -0.699553       -19.0358 
   5   1.0000      -0.557116       -15.1599 
   6   1.0000      -0.477385       -12.9903 
   7   1.0000      -0.445968       -12.1354 
   8   1.0000      -0.417256       -11.3541 
   9   1.0000      -0.389147       -10.5892 
  10   1.0000      -0.363913        -9.9026 
  11   1.0000      -0.307095        -8.3565 
  12   0.0000      -0.006485        -0.1765 
  13   0.0000       0.076537         2.0827 
  14   0.0000       0.109899         2.9905 
  15   0.0000       0.118657         3.2288 
  16   0.0000       0.126737         3.4487 
  17   0.0000       0.155816         4.2400 
  18   0.0000       0.164383         4.4731 
  19   0.0000       0.168599         4.5878 
  20   0.0000       0.258126         7.0240 
  21   0.0000       0.300400         8.1743 
  22   0.0000       0.399902        10.8819 
  23   0.0000       0.415105        11.2956 
  24   0.0000       0.430654        11.7187 
  25   0.0000       0.518545        14.1103 
  26   0.0000       0.523611        14.2482 
  27   0.0000       0.569811        15.5053 
  28   0.0000       0.589081        16.0297 
  29   0.0000       0.648652        17.6507 
  30   0.0000       0.662047        18.0152 
  31   0.0000       0.674334        18.3496 
  32   0.0000       0.680046        18.5050 
  33   0.0000       0.692532        18.8448 
  34   0.0000       0.701848        19.0983 
  35   0.0000       0.709945        19.3186 
  36   0.0000       0.716755        19.5039 
  37   0.0000       0.724928        19.7263 
  38   0.0000       0.762503        20.7488 
  39   0.0000       0.916283        24.9333 
  40   0.0000       0.964912        26.2566 
  41   0.0000       1.137105        30.9422 
  42   0.0000       1.254173        34.1278 
  43   0.0000       1.330993        36.2182 
  44   0.0000       1.441580        39.2274 
  45   0.0000       1.501803        40.8662 
  46   0.0000       1.546768        42.0897 
  47   0.0000       1.556239        42.3474 
  48   0.0000       1.577895        42.9367 
  49   0.0000       1.660074        45.1729 
  50   0.0000       1.717918        46.7469 
  51   0.0000       1.741484        47.3882 
  52   0.0000       1.790557        48.7235 
  53   0.0000       1.798800        48.9478 
  54   0.0000       1.808152        49.2023 
  55   0.0000       1.824221        49.6396 
  56   0.0000       1.906897        51.8893 
  57   0.0000       1.941546        52.8322 
  58   0.0000       1.969388        53.5898 
  59   0.0000       2.059050        56.0296 
  60   0.0000       2.118651        57.6514 
  61   0.0000       2.183713        59.4219 
  62   0.0000       2.232485        60.7490 
  63   0.0000       2.284971        62.1772 
  64   0.0000       2.381135        64.7940 
  65   0.0000       2.456438        66.8431 
  66   0.0000       2.472946        67.2923 
  67   0.0000       2.502825        68.1053 
  68   0.0000       2.563370        69.7529 
  69   0.0000       2.609202        71.0000 
  70   0.0000       2.767730        75.3138 
  71   0.0000       2.786086        75.8132 
  72   0.0000       2.879589        78.3576 
  73   0.0000       2.952524        80.3423 
  74   0.0000       2.965376        80.6920 
  75   0.0000       3.032515        82.5189 
  76   0.0000       3.157666        85.9245 

                    ********************************
                    * MULLIKEN POPULATION ANALYSIS *
                    ********************************

--------------------------------------------
MULLIKEN ATOMIC CHARGES AND SPIN POPULATIONS
--------------------------------------------
   0 C :   -0.027588   -0.051349
   1 C :   -0.223663    0.557445
   2 C :   -0.186882    0.593155
   3 H :    0.049218    0.045588
   4 H :    0.048779    0.002458
   5 H :    0.033620    0.009707
   6 H :    0.058636   -0.020967
   7 H :    0.116712   -0.090288
   8 H :    0.063819   -0.024632
   9 H :    0.067349   -0.021115
Sum of atomic charges         :    0.0000000
Sum of atomic spin populations:    1.0000000

-----------------------------------------------------
MULLIKEN REDUCED ORBITAL CHARGES AND SPIN POPULATIONS
-----------------------------------------------------
CHARGE
  0 C s       :     3.011705  s :     3.011705
      pz      :     1.021492  p :     2.986763
      px      :     0.956064
      py      :     1.009208
      dz2     :     0.005835  d :     0.029119
      dxz     :     0.003393
      dyz     :     0.005917
      dx2y2   :     0.005502
      dxy     :     0.008472
  1 C s       :     3.193749  s :     3.193749
      pz      :     0.957559  p :     2.992041
      px      :     0.951809
      py      :     1.082674
      dz2     :     0.005532  d :     0.037873
      dxz     :     0.009816
      dyz     :     0.005436
      dx2y2   :     0.007340
      dxy     :     0.009748
  2 C s       :     3.179835  s :     3.179835
      pz      :     1.086173  p :     2.980228
      px      :     0.932277
      py      :     0.961779
      dz2     :     0.003463  d :     0.026819
      dxz     :     0.006058
      dyz     :     0.004540
      dx2y2   :     0.006559
      dxy     :     0.006199
  3 H s       :     0.926851  s :     0.926851
      pz      :     0.008615  p :     0.023931
      px      :     0.004482
      py      :     0.010834
  4 H s       :     0.927521  s :     0.927521
      pz      :     0.005438  p :     0.023700
      px      :     0.008780
      py      :     0.009482
  5 H s       :     0.942422  s :     0.942422
      pz      :     0.013284  p :     0.023958
      px      :     0.004602
      py      :     0.006072
  6 H s       :     0.917660  s :     0.917660
      pz      :     0.011457  p :     0.023704
      px      :     0.003483
      py      :     0.008763
  7 H s       :     0.843973  s :     0.843973
      pz      :     0.012916  p :     0.039315
      px      :     0.012270
      py      :     0.014128
  8 H s       :     0.911257  s :     0.911257
      pz      :     0.009716  p :     0.024924
      px      :     0.004053
      py      :     0.011155
  9 H s       :     0.907812  s :     0.907812
      pz      :     0.006960  p :     0.024839
      px      :     0.013089
      py      :     0.004790

SPIN
  0 C s       :    -0.016941  s :    -0.016941
      pz      :    -0.009692  p :    -0.038657
      px      :    -0.016080
      py      :    -0.012885
      dz2     :     0.000183  d :     0.004249
      dxz     :     0.001307
      dyz     :     0.001012
      dx2y2   :     0.000803
      dxy     :     0.000944
  1 C s       :     0.083013  s :     0.083013
      pz      :     0.240698  p :     0.474079
      px      :     0.003867
      py      :     0.229514
      dz2     :    -0.000298  d :     0.000354
      dxz     :     0.000215
      dyz     :    -0.000046
      dx2y2   :     0.000761
      dxy     :    -0.000279
  2 C s       :     0.068308  s :     0.068308
      pz      :     0.227819  p :     0.524963
      px      :     0.003588
      py      :     0.293555
      dz2     :     0.000617  d :    -0.000116
      dxz     :    -0.000153
      dyz     :    -0.000501
      dx2y2   :    -0.000426
      dxy     :     0.000347
  3 H s       :     0.045798  s :     0.045798
      pz      :     0.000007  p :    -0.000210
      px      :     0.000072
      py      :    -0.000289
  4 H s       :     0.002627  s :     0.002627
      pz      :    -0.000027  p :    -0.000170
      px      :    -0.000076
      py      :    -0.000067
  5 H s       :     0.009912  s :     0.009912
      pz      :    -0.000095  p :    -0.000206
      px      :    -0.000074
      py      :    -0.000037
  6 H s       :    -0.024074  s :    -0.024074
      pz      :     0.000962  p :     0.003107
      px      :    -0.000094
      py      :     0.002239
  7 H s       :    -0.104444  s :    -0.104444
      pz      :     0.002803  p :     0.014156
      px      :     0.008481
      py      :     0.002872
  8 H s       :    -0.028058  s :    -0.028058
      pz      :     0.002239  p :     0.003426
      px      :    -0.000087
      py      :     0.001274
  9 H s       :    -0.024331  s :    -0.024331
      pz      :     0.001052  p :     0.003216
      px      :     0.000185
      py      :     0.001978


                     *******************************
                     * LOEWDIN POPULATION ANALYSIS *
                     *******************************

-------------------------------------------
LOEWDIN ATOMIC CHARGES AND SPIN POPULATIONS
-------------------------------------------
   0 C :   -0.075998   -0.003686
   1 C :   -0.095361    0.451270
   2 C :   -0.121122    0.476522
   3 H :    0.030530    0.035923
   4 H :    0.032848    0.002112
   5 H :    0.031614    0.009195
   6 H :    0.028397    0.007456
   7 H :    0.112650    0.008529
   8 H :    0.027142    0.005268
   9 H :    0.029300    0.007410

----------------------------------------------------
LOEWDIN REDUCED ORBITAL CHARGES AND SPIN POPULATIONS
----------------------------------------------------
CHARGE
  0 C s       :     2.839614  s :     2.839614
      pz      :     1.069449  p :     3.159327
      px      :     1.028550
      py      :     1.061328
      dz2     :     0.016327  d :     0.077057
      dxz     :     0.007918
      dyz     :     0.015956
      dx2y2   :     0.014519
      dxy     :     0.022338
  1 C s       :     2.870778  s :     2.870778
      pz      :     0.997239  p :     3.132110
      px      :     1.016846
      py      :     1.118025
      dz2     :     0.014973  d :     0.092474
      dxz     :     0.023545
      dyz     :     0.013047
      dx2y2   :     0.017205
      dxy     :     0.023704
  2 C s       :     2.886030  s :     2.886030
      pz      :     1.131219  p :     3.165058
      px      :     1.029945
      py      :     1.003894
      dz2     :     0.008211  d :     0.070034
      dxz     :     0.016381
      dyz     :     0.011131
      dx2y2   :     0.018563
      dxy     :     0.015748
  3 H s       :     0.903423  s :     0.903423
      pz      :     0.022515  p :     0.066047
      px      :     0.013156
      py      :     0.030376
  4 H s       :     0.901982  s :     0.901982
      pz      :     0.013782  p :     0.065170
      px      :     0.025563
      py      :     0.025825
  5 H s       :     0.903429  s :     0.903429
      pz      :     0.036574  p :     0.064958
      px      :     0.012744
      py      :     0.015639
  6 H s       :     0.896852  s :     0.896852
      pz      :     0.035571  p :     0.074751
      px      :     0.012338
      py      :     0.026842
  7 H s       :     0.753932  s :     0.753932
      pz      :     0.039758  p :     0.133418
      px      :     0.048977
      py      :     0.044684
  8 H s       :     0.897051  s :     0.897051
      pz      :     0.029274  p :     0.075807
      px      :     0.011556
      py      :     0.034977
  9 H s       :     0.894937  s :     0.894937
      pz      :     0.021825  p :     0.075764
      px      :     0.038597
      py      :     0.015342

SPIN
  0 C s       :    -0.001397  s :    -0.001397
      pz      :    -0.004336  p :    -0.014156
      px      :    -0.005999
      py      :    -0.003821
      dz2     :     0.000735  d :     0.011866
      dxz     :     0.003341
      dyz     :     0.003106
      dx2y2   :     0.001941
      dxy     :     0.002744
  1 C s       :     0.024395  s :     0.024395
      pz      :     0.196804  p :     0.423069
      px      :     0.006486
      py      :     0.219778
      dz2     :     0.000085  d :     0.003806
      dxz     :     0.001454
      dyz     :    -0.000154
      dx2y2   :     0.002238
      dxy     :     0.000183
  2 C s       :     0.022059  s :     0.022059
      pz      :     0.210023  p :     0.450726
      px      :     0.005667
      py      :     0.235036
      dz2     :     0.002402  d :     0.003737
      dxz     :     0.000800
      dyz     :    -0.000774
      dx2y2   :    -0.000787
      dxy     :     0.002096
  3 H s       :     0.035386  s :     0.035386
      pz      :    -0.000243  p :     0.000537
      px      :     0.000665
      py      :     0.000115
  4 H s       :     0.002730  s :     0.002730
      pz      :    -0.000180  p :    -0.000617
      px      :    -0.000244
      py      :    -0.000193
  5 H s       :     0.009748  s :     0.009748
      pz      :    -0.000131  p :    -0.000553
      px      :    -0.000235
      py      :    -0.000188
  6 H s       :    -0.008432  s :    -0.008432
      pz      :     0.007712  p :     0.015888
      px      :     0.000203
      py      :     0.007973
  7 H s       :    -0.057893  s :    -0.057893
      pz      :     0.012286  p :     0.066422
      px      :     0.039724
      py      :     0.014412
  8 H s       :    -0.011207  s :    -0.011207
      pz      :     0.007569  p :     0.016475
      px      :     0.000136
      py      :     0.008770
  9 H s       :    -0.008654  s :    -0.008654
      pz      :     0.005690  p :     0.016065
      px      :     0.001344
      py      :     0.009031


                      *****************************
                      * MAYER POPULATION ANALYSIS *
                      *****************************

  NA   - Mulliken gross atomic population
  ZA   - Total nuclear charge
  QA   - Mulliken gross atomic charge
  VA   - Mayer's total valence
  BVA  - Mayer's bonded valence
  FA   - Mayer's free valence

  ATOM       NA         ZA         QA         VA         BVA        FA
  0 C      6.0276     6.0000    -0.0276     3.9605     3.9591     0.0013
  1 C      6.2237     6.0000    -0.2237     3.8707     3.6083     0.2624
  2 C      6.1869     6.0000    -0.1869     3.7526     3.4697     0.2829
  3 H      0.9508     1.0000     0.0492     0.9778     0.9755     0.0022
  4 H      0.9512     1.0000     0.0488     0.9817     0.9816     0.0000
  5 H      0.9664     1.0000     0.0336     0.9878     0.9877     0.0001
  6 H      0.9414     1.0000     0.0586     0.9816     0.9808     0.0008
  7 H      0.8833     1.0000     0.1167     1.0214     1.0101     0.0113
  8 H      0.9362     1.0000     0.0638     0.9902     0.9893     0.0009
  9 H      0.9327     1.0000     0.0673     0.9833     0.9825     0.0008

  Mayer bond orders larger than 0.1
B(  0-C ,  1-C ) :   1.0828 B(  0-C ,  3-H ) :   0.9544 B(  0-C ,  4-H ) :   0.9691 
B(  0-C ,  5-H ) :   0.9629 B(  1-C ,  2-C ) :   1.0204 B(  1-C ,  6-H ) :   0.9609 
B(  1-C ,  7-H ) :   0.4986 B(  2-C ,  7-H ) :   0.4992 B(  2-C ,  8-H ) :   0.9691 
B(  2-C ,  9-H ) :   0.9678 

-------
TIMINGS
-------

Total SCF time: 0 days 0 hours 0 min 3 sec 

Total time                  ....       3.054 sec
Sum of individual times     ....       2.935 sec  ( 96.1%)

Fock matrix formation       ....       2.531 sec  ( 82.9%)
  Split-RI-J                ....       1.225 sec  ( 48.4% of F)
  Chain of spheres X        ....       1.076 sec  ( 42.5% of F)
  COS-X 1 center corr.      ....       0.000 sec  (  0.0% of F)
  XC integration            ....       0.199 sec  (  7.9% of F)
    Basis function eval.    ....       0.042 sec  ( 21.2% of XC)
    Density eval.           ....       0.029 sec  ( 14.4% of XC)
    XC-Functional eval.     ....       0.014 sec  (  7.0% of XC)
    XC-Potential eval.      ....       0.046 sec  ( 23.2% of XC)
Diagonalization             ....       0.014 sec  (  0.5%)
Density matrix formation    ....       0.001 sec  (  0.0%)
Population analysis         ....       0.007 sec  (  0.2%)
Initial guess               ....       0.111 sec  (  3.6%)
Orbital Transformation      ....       0.000 sec  (  0.0%)
Orbital Orthonormalization  ....       0.000 sec  (  0.0%)
DIIS solution               ....       0.005 sec  (  0.2%)
Grid generation             ....       0.265 sec  (  8.7%)


-------------------------------------------------------------------------------
                          DFT DISPERSION CORRECTION                            
                                                                               
                              DFTD3 V3.1  Rev 1                                
                          USING Becke-Johnson damping                          
-------------------------------------------------------------------------------
The PBE0 functional is recognized
Active option DFTDOPT                   ...         4   

molecular C6(AA) [au] = 632.873776 


            DFT-D V3
 parameters
 s6 scaling factor         :     1.0000 
 a1 scaling factor         :     0.4145 
 s8 scaling factor         :     1.2177 
 a2 scaling factor         :     4.8593 
 ad hoc parameters k1-k3   :    16.0000     1.3333    -4.0000 

 Edisp/kcal,au: -2.650798040061  -0.004224315117 
 E6   /kcal   :  -1.747231766 
 E8   /kcal   :  -0.903566274 
 % E8         :  34.086575470 

-------------------------   ----------------
Dispersion correction           -0.004224315
-------------------------   ----------------


-------------------------   --------------------
FINAL SINGLE POINT ENERGY      -118.176839867815
-------------------------   --------------------

[1621345385.497270] [ty2019:19564:0]            sys.c:618  UCX  ERROR shmget(size=2097152 flags=0xfb0) for mm_recv_desc failed: Operation not permitted, please check shared memory limits by 'ipcs -l'
[1621345385.499552] [ty2019:19565:0]            sys.c:618  UCX  ERROR shmget(size=2097152 flags=0xfb0) for mm_recv_desc failed: Operation not permitted, please check shared memory limits by 'ipcs -l'
[1621345385.505955] [ty2019:19563:0]            sys.c:618  UCX  ERROR shmget(size=2097152 flags=0xfb0) for mm_recv_desc failed: Operation not permitted, please check shared memory limits by 'ipcs -l'
[1621345385.506182] [ty2019:19568:0]            sys.c:618  UCX  ERROR shmget(size=2097152 flags=0xfb0) for mm_recv_desc failed: Operation not permitted, please check shared memory limits by 'ipcs -l'
[1621345385.507135] [ty2019:19566:0]            sys.c:618  UCX  ERROR shmget(size=2097152 flags=0xfb0) for mm_recv_desc failed: Operation not permitted, please check shared memory limits by 'ipcs -l'
[1621345385.507887] [ty2019:19562:0]            sys.c:618  UCX  ERROR shmget(size=2097152 flags=0xfb0) for mm_recv_desc failed: Operation not permitted, please check shared memory limits by 'ipcs -l'
[1621345385.508786] [ty2019:19561:0]            sys.c:618  UCX  ERROR shmget(size=2097152 flags=0xfb0) for mm_recv_desc failed: Operation not permitted, please check shared memory limits by 'ipcs -l'
[1621345385.509410] [ty2019:19567:0]            sys.c:618  UCX  ERROR shmget(size=2097152 flags=0xfb0) for mm_recv_desc failed: Operation not permitted, please check shared memory limits by 'ipcs -l'
[1621345385.516971] [ty2019:19563:0]            sys.c:618  UCX  ERROR shmget(size=2097152 flags=0xb80) for ucp_am_bufs failed: Operation not permitted, please check shared memory limits by 'ipcs -l'
[1621345385.517137] [ty2019:19565:0]            sys.c:618  UCX  ERROR shmget(size=2097152 flags=0xb80) for ucp_am_bufs failed: Operation not permitted, please check shared memory limits by 'ipcs -l'
[1621345385.517131] [ty2019:19561:0]            sys.c:618  UCX  ERROR shmget(size=2097152 flags=0xb80) for ucp_am_bufs failed: Operation not permitted, please check shared memory limits by 'ipcs -l'
[1621345385.517131] [ty2019:19567:0]            sys.c:618  UCX  ERROR shmget(size=2097152 flags=0xb80) for ucp_am_bufs failed: Operation not permitted, please check shared memory limits by 'ipcs -l'
[1621345385.517328] [ty2019:19562:0]            sys.c:618  UCX  ERROR shmget(size=2097152 flags=0xb80) for ucp_am_bufs failed: Operation not permitted, please check shared memory limits by 'ipcs -l'
[1621345385.517509] [ty2019:19566:0]            sys.c:618  UCX  ERROR shmget(size=2097152 flags=0xb80) for ucp_am_bufs failed: Operation not permitted, please check shared memory limits by 'ipcs -l'
[1621345385.517659] [ty2019:19568:0]            sys.c:618  UCX  ERROR shmget(size=2097152 flags=0xb80) for ucp_am_bufs failed: Operation not permitted, please check shared memory limits by 'ipcs -l'


           ************************************************************
           *        Program running with 8 parallel MPI-processes     *
           *              working on a common directory               *
           ************************************************************
[1621345385.521086] [ty2019:19564:0]            sys.c:618  UCX  ERROR shmget(size=2097152 flags=0xb80) for ucp_am_bufs failed: Operation not permitted, please check shared memory limits by 'ipcs -l'
------------------------------------------------------------------------------
                         ORCA SCF GRADIENT CALCULATION
------------------------------------------------------------------------------

Gradient of the Kohn-Sham DFT energy:
Kohn-Sham wavefunction type      ... UKS
Hartree-Fock exchange scaling    ...    0.250
Number of operators              ...    2
Number of atoms                  ...   10
Basis set dimensions             ...   77
Integral neglect threshold       ... 2.5e-11
Integral primitive cutoff        ... 2.5e-12

Nuclear repulsion gradient       ... done
One Electron Gradient            ... done
Pre-screening matrix             ... done
RI-J gradient                    ... done
COSX-gradient                    ... done
Exchange-correlation gradient    ... done
Dispersion correction            ... done

------------------
CARTESIAN GRADIENT
------------------

   1   C   :    0.000064279    0.000035238   -0.000272226
   2   C   :    0.000046470    0.000042894   -0.000087610
   3   C   :    0.000129796    0.000050382    0.000067613
   4   H   :   -0.000029706    0.000034977   -0.000297004
   5   H   :    0.000038128    0.000031294   -0.000373287
   6   H   :    0.000198939    0.000033266   -0.000295988
   7   H   :   -0.000066627    0.000045317   -0.000055539
   8   H   :    0.000187230    0.000044387   -0.000003996
   9   H   :    0.000215951    0.000046996    0.000041072
  10   H   :    0.000073590    0.000054784    0.000199930

Difference to translation invariance:
           :    0.0008580503    0.0004195333   -0.0010770356

Norm of the cartesian gradient     ...    0.0007880581
RMS gradient                       ...    0.0001438791
MAX gradient                       ...    0.0003732866

-------
TIMINGS
-------

Total SCF gradient time            ...        0.635 sec

One electron gradient       ....       0.008 sec  (  1.3%)
Prescreening matrices       ....       0.007 sec  (  1.1%)
RI-J Coulomb gradient       ....       0.116 sec  ( 18.3%)
COSX gradient               ....       0.110 sec  ( 17.3%)
XC gradient                 ....       0.136 sec  ( 21.4%)

                            ***************************************
                            *     ORCA property calculations      *
                            ***************************************

                                    ---------------------
                                    Active property flags
                                    ---------------------
   (+) Dipole Moment


------------------------------------------------------------------------------
                       ORCA ELECTRIC PROPERTIES CALCULATION
------------------------------------------------------------------------------

Dipole Moment Calculation                       ... on
Quadrupole Moment Calculation                   ... off
Polarizability Calculation                      ... off
GBWName                                         ... irc.gbw
Electron density file                           ... irc.scfp.tmp
The origin for moment calculation is the CENTER OF MASS  = ( 0.172654,  0.161586 -0.024274)

-------------
DIPOLE MOMENT
-------------
                                X             Y             Z
Electronic contribution:      0.53823      -0.23337       0.36740
Nuclear contribution   :     -0.60129       0.18941      -0.36280
                        -----------------------------------------
Total Dipole Moment    :     -0.06306      -0.04396       0.00460
                        -----------------------------------------
Magnitude (a.u.)       :      0.07701
Magnitude (Debye)      :      0.19575



--------------------
Rotational spectrum 
--------------------
 
Rotational constants in cm-1:     1.258757     0.285632     0.253335 
Rotational constants in MHz : 37736.576363  8563.046696  7594.783021 

 Dipole components along the rotational axes: 
x,y,z [a.u.] :     0.064531     0.028403     0.030978 
x,y,z [Debye]:     0.164026     0.072194     0.078739 

 
[1621345386.947908] [ty2019:19604:0]            sys.c:618  UCX  ERROR shmget(size=2097152 flags=0xfb0) for mm_recv_desc failed: Operation not permitted, please check shared memory limits by 'ipcs -l'
[1621345386.954148] [ty2019:19605:0]            sys.c:618  UCX  ERROR shmget(size=2097152 flags=0xfb0) for mm_recv_desc failed: Operation not permitted, please check shared memory limits by 'ipcs -l'
[1621345386.957594] [ty2019:19599:0]            sys.c:618  UCX  ERROR shmget(size=2097152 flags=0xfb0) for mm_recv_desc failed: Operation not permitted, please check shared memory limits by 'ipcs -l'
[1621345386.957857] [ty2019:19606:0]            sys.c:618  UCX  ERROR shmget(size=2097152 flags=0xfb0) for mm_recv_desc failed: Operation not permitted, please check shared memory limits by 'ipcs -l'
[1621345386.962640] [ty2019:19603:0]            sys.c:618  UCX  ERROR shmget(size=2097152 flags=0xfb0) for mm_recv_desc failed: Operation not permitted, please check shared memory limits by 'ipcs -l'
[1621345386.963576] [ty2019:19602:0]            sys.c:618  UCX  ERROR shmget(size=2097152 flags=0xfb0) for mm_recv_desc failed: Operation not permitted, please check shared memory limits by 'ipcs -l'
[1621345386.963640] [ty2019:19600:0]            sys.c:618  UCX  ERROR shmget(size=2097152 flags=0xfb0) for mm_recv_desc failed: Operation not permitted, please check shared memory limits by 'ipcs -l'
[1621345386.964222] [ty2019:19601:0]            sys.c:618  UCX  ERROR shmget(size=2097152 flags=0xfb0) for mm_recv_desc failed: Operation not permitted, please check shared memory limits by 'ipcs -l'
[1621345386.973654] [ty2019:19605:0]            sys.c:618  UCX  ERROR shmget(size=2097152 flags=0xb80) for ucp_am_bufs failed: Operation not permitted, please check shared memory limits by 'ipcs -l'
[1621345386.973670] [ty2019:19602:0]            sys.c:618  UCX  ERROR shmget(size=2097152 flags=0xb80) for ucp_am_bufs failed: Operation not permitted, please check shared memory limits by 'ipcs -l'
[1621345386.973676] [ty2019:19603:0]            sys.c:618  UCX  ERROR shmget(size=2097152 flags=0xb80) for ucp_am_bufs failed: Operation not permitted, please check shared memory limits by 'ipcs -l'
[1621345386.973676] [ty2019:19606:0]            sys.c:618  UCX  ERROR shmget(size=2097152 flags=0xb80) for ucp_am_bufs failed: Operation not permitted, please check shared memory limits by 'ipcs -l'
[1621345386.974149] [ty2019:19604:0]            sys.c:618  UCX  ERROR shmget(size=2097152 flags=0xb80) for ucp_am_bufs failed: Operation not permitted, please check shared memory limits by 'ipcs -l'
[1621345386.974479] [ty2019:19599:0]            sys.c:618  UCX  ERROR shmget(size=2097152 flags=0xb80) for ucp_am_bufs failed: Operation not permitted, please check shared memory limits by 'ipcs -l'
[1621345386.975165] [ty2019:19601:0]            sys.c:618  UCX  ERROR shmget(size=2097152 flags=0xb80) for ucp_am_bufs failed: Operation not permitted, please check shared memory limits by 'ipcs -l'


           ************************************************************
           *        Program running with 8 parallel MPI-processes     *
           *              working on a common directory               *
           ************************************************************
[1621345386.986199] [ty2019:19600:0]            sys.c:618  UCX  ERROR shmget(size=2097152 flags=0xb80) for ucp_am_bufs failed: Operation not permitted, please check shared memory limits by 'ipcs -l'

-------------------------------------------------------------------------------
                               ORCA SCF HESSIAN
-------------------------------------------------------------------------------

Hessian of the Kohn-Sham DFT energy:
Kohn-Sham wavefunction type                      ... UKS
Hartree-Fock exchange scaling                    ...    0.250
Number of operators                              ...    2
Number of atoms                                  ...   10
Basis set dimensions                             ...   77
Integral neglect threshold                       ... 2.5e-11
Integral primitive cutoff                        ... 2.5e-12

Setting up DFT Hessian calculations              ... 
Electron density on the grid                     ... found on disk
Electron density on the final grid               ... found on disk
Building xc-kernel on the grid                   ... done   (      0.0 sec)
Building xc-kernel on the final grid             ... done   (      0.0 sec)
                                                     done   (      0.1 sec)

Nuclear repulsion Hessian                        ... done   (      0.0 sec)

----------------------------------------------
Forming right-hand sides of CP-SCF equations     ...
----------------------------------------------
One electron integral derivatives                ... done   (      0.1 sec)
Transforming the overlap derivative matrices     ... done   (      0.0 sec)
[1621345387.473222] [ty2019:19602:0]            sys.c:618  UCX  ERROR shmget(size=6291456 flags=0xfb0) for mm_recv_desc failed: Operation not permitted, please check shared memory limits by 'ipcs -l'
[1621345387.473239] [ty2019:19603:0]            sys.c:618  UCX  ERROR shmget(size=6291456 flags=0xfb0) for mm_recv_desc failed: Operation not permitted, please check shared memory limits by 'ipcs -l'
[1621345387.474312] [ty2019:19601:0]            sys.c:618  UCX  ERROR shmget(size=6291456 flags=0xfb0) for mm_recv_desc failed: Operation not permitted, please check shared memory limits by 'ipcs -l'
[1621345387.476003] [ty2019:19599:0]            sys.c:618  UCX  ERROR shmget(size=6291456 flags=0xfb0) for mm_recv_desc failed: Operation not permitted, please check shared memory limits by 'ipcs -l'
[1621345387.476139] [ty2019:19606:0]            sys.c:618  UCX  ERROR shmget(size=6291456 flags=0xfb0) for mm_recv_desc failed: Operation not permitted, please check shared memory limits by 'ipcs -l'
[1621345387.478713] [ty2019:19605:0]            sys.c:618  UCX  ERROR shmget(size=6291456 flags=0xfb0) for mm_recv_desc failed: Operation not permitted, please check shared memory limits by 'ipcs -l'
Making the Q(x) pseudodensities                  ... [1621345387.482026] [ty2019:19604:0]            sys.c:618  UCX  ERROR shmget(size=6291456 flags=0xfb0) for mm_recv_desc failed: Operation not permitted, please check shared memory limits by 'ipcs -l'
done   (      0.0 sec)
Adding the E*S(x)*S(y) terms to the Hessian      ... done   (      0.0 sec)
Calculating energy weighted overlap derivatives  ... done   (      0.0 sec)
Two electron integral derivatives (RI)           ... done   (      0.4 sec)
Exchange-correlation integral derivatives        ... done   (      1.5 sec)
tr(F(y)Q(x)) contribution to the Hessian         ... done   (      0.0 sec)
Response fock operator R(S(x)) (RIJCOSX)         ... done   (      0.6 sec)
XC Response fock operator R(S(x))                ... done   (      0.5 sec)
tr(F(y)S(x)) contribution to the Hessian         ... done   (      0.0 sec)
Transforming and finalizing RHSs                 ... done   (      0.0 sec)

----------------------------------------------
Solving the CP-SCF equations (RIJCOSX)           ...
----------------------------------------------
     CP-SCF ITERATION   0: 
     CP-SCF ITERATION   1:      0.004290724683
     CP-SCF ITERATION   2:      0.000923204799
     CP-SCF ITERATION   3:      0.000094344606
     CP-SCF ITERATION   4:      0.000011061719
     CP-SCF ITERATION   5:      0.000001335503
     CP-SCF ITERATION   6:      0.000000093208
     CP-SCF ITERATION   7:      0.000000009785

                                                 ... done   (      4.5 sec)
Forming perturbed density Hessian contributions  ... done   (      0.0 sec)
2nd integral derivative contribs (RI)            ... done   (      1.1 sec)
Exchange-correlation Hessian                     ... done   (      1.6 sec)
Dispersion correction in the Hessian             ... done   (      0.6 sec)
Dipol derivatives                                ... done   (      0.1 sec)

Total SCF Hessian time: 0 days 0 hours 0 min 11 sec 

Writing the Hessian file to the disk             ... done


Maximum memory used throughout the entire calculation: 121.9 MB

-----------------------
VIBRATIONAL FREQUENCIES
-----------------------

Scaling factor for frequencies =  1.000000000  (already applied!)

   0:         0.00 cm**-1
   1:         0.00 cm**-1
   2:         0.00 cm**-1
   3:         0.00 cm**-1
   4:         0.00 cm**-1
   5:         0.00 cm**-1
   6:     -1898.02 cm**-1 ***imaginary mode***
   7:       203.71 cm**-1
   8:       364.97 cm**-1
   9:       370.06 cm**-1
  10:       692.02 cm**-1
  11:       717.16 cm**-1
  12:       905.82 cm**-1
  13:       928.41 cm**-1
  14:      1024.04 cm**-1
  15:      1160.91 cm**-1
  16:      1198.14 cm**-1
  17:      1257.48 cm**-1
  18:      1348.93 cm**-1
  19:      1401.70 cm**-1
  20:      1421.42 cm**-1
  21:      1452.06 cm**-1
  22:      1465.05 cm**-1
  23:      2264.93 cm**-1
  24:      3010.28 cm**-1
  25:      3091.70 cm**-1
  26:      3147.98 cm**-1
  27:      3162.12 cm**-1
  28:      3194.03 cm**-1
  29:      3290.13 cm**-1


------------
NORMAL MODES
------------

These modes are the Cartesian displacements weighted by the diagonal matrix
M(i,i)=1/sqrt(m[i]) where m[i] is the mass of the displaced atom
Thus, these vectors are normalized but *not* orthogonal

                  0          1          2          3          4          5    
      0       0.000000   0.000000   0.000000   0.000000   0.000000   0.000000
      1       0.000000   0.000000   0.000000   0.000000   0.000000   0.000000
      2       0.000000   0.000000   0.000000   0.000000   0.000000   0.000000
      3       0.000000   0.000000   0.000000   0.000000   0.000000   0.000000
      4       0.000000   0.000000   0.000000   0.000000   0.000000   0.000000
      5       0.000000   0.000000   0.000000   0.000000   0.000000   0.000000
      6       0.000000   0.000000   0.000000   0.000000   0.000000   0.000000
      7       0.000000   0.000000   0.000000   0.000000   0.000000   0.000000
      8       0.000000   0.000000   0.000000   0.000000   0.000000   0.000000
      9       0.000000   0.000000   0.000000   0.000000   0.000000   0.000000
     10       0.000000   0.000000   0.000000   0.000000   0.000000   0.000000
     11       0.000000   0.000000   0.000000   0.000000   0.000000   0.000000
     12       0.000000   0.000000   0.000000   0.000000   0.000000   0.000000
     13       0.000000   0.000000   0.000000   0.000000   0.000000   0.000000
     14       0.000000   0.000000   0.000000   0.000000   0.000000   0.000000
     15       0.000000   0.000000   0.000000   0.000000   0.000000   0.000000
     16       0.000000   0.000000   0.000000   0.000000   0.000000   0.000000
     17       0.000000   0.000000   0.000000   0.000000   0.000000   0.000000
     18       0.000000   0.000000   0.000000   0.000000   0.000000   0.000000
     19       0.000000   0.000000   0.000000   0.000000   0.000000   0.000000
     20       0.000000   0.000000   0.000000   0.000000   0.000000   0.000000
     21       0.000000   0.000000   0.000000   0.000000   0.000000   0.000000
     22       0.000000   0.000000   0.000000   0.000000   0.000000   0.000000
     23       0.000000   0.000000   0.000000   0.000000   0.000000   0.000000
     24       0.000000   0.000000   0.000000   0.000000   0.000000   0.000000
     25       0.000000   0.000000   0.000000   0.000000   0.000000   0.000000
     26       0.000000   0.000000   0.000000   0.000000   0.000000   0.000000
     27       0.000000   0.000000   0.000000   0.000000   0.000000   0.000000
     28       0.000000   0.000000   0.000000   0.000000   0.000000   0.000000
     29       0.000000   0.000000   0.000000   0.000000   0.000000   0.000000
                  6          7          8          9         10         11    
      0      -0.000496  -0.012154  -0.068535   0.104445   0.007176  -0.000889
      1       0.001735  -0.009715   0.002423   0.059093  -0.014554   0.013263
      2      -0.001601  -0.003223   0.060124  -0.026027  -0.005627   0.002821
      3       0.033937   0.006788  -0.029823   0.007073  -0.002943   0.023484
      4      -0.029426   0.055488   0.019220  -0.156683  -0.037740   0.060195
      5      -0.061724   0.053753  -0.133014   0.014777  -0.062107   0.034008
      6       0.024368   0.008193   0.085702  -0.125628  -0.023513   0.026972
      7       0.065619  -0.036071  -0.014962   0.040510  -0.018027  -0.104737
      8       0.032529  -0.049116   0.033270   0.015607  -0.035958  -0.088482
      9       0.022832  -0.256948   0.047512   0.300625   0.200243  -0.121960
     10      -0.015262  -0.347013  -0.043117   0.070388  -0.064490   0.021587
     11       0.008423   0.365599   0.151945   0.012108   0.110132  -0.042759
     12       0.005302   0.002481   0.000804  -0.109131  -0.030514   0.050169
     13      -0.002935  -0.185256  -0.032513   0.243716   0.044302  -0.043682
     14      -0.002958  -0.530168   0.177138  -0.135942   0.068314  -0.015484
[...]
      1       0.045681   0.029177   0.068473   0.001280  -0.006160   0.000096
      2       0.018575   0.077938  -0.044161  -0.001604   0.006847   0.000684
      3      -0.000084  -0.002019   0.001826  -0.005202   0.017632   0.001406
      4       0.001219   0.001711  -0.005047   0.002496  -0.049239  -0.003888
      5       0.000211  -0.001347   0.007784  -0.000808   0.066917   0.005543
      6      -0.000586   0.000133  -0.001114   0.045122  -0.000391   0.065337
      7      -0.000535   0.000650  -0.000329   0.039380   0.008607  -0.050495
      8       0.000290  -0.000146   0.000452  -0.017224  -0.006063   0.059107
      9       0.123909   0.076342   0.023545   0.000689  -0.001045  -0.000256
     10      -0.666007  -0.373132  -0.073442   0.001856   0.000894  -0.001474
     11      -0.527903  -0.282109  -0.078413   0.000826   0.002711  -0.001068
     12       0.218896  -0.252245  -0.599176  -0.007988   0.067936   0.001876
     13       0.233467  -0.251981  -0.603925  -0.010276   0.062983   0.001653
     14      -0.059938   0.091047   0.176626   0.002631  -0.019309  -0.001036
     15       0.055872  -0.118988   0.075189   0.003648  -0.011550  -0.003002
     16      -0.114365   0.269972  -0.140866  -0.006628   0.022347   0.002145
     17       0.369405  -0.738053   0.429574   0.017648  -0.064613  -0.006259
     18      -0.001233   0.004594  -0.024016   0.013599  -0.209361  -0.014212
     19      -0.002470  -0.010812   0.066093  -0.033484   0.564761   0.043026
     20       0.000648   0.016518  -0.096041   0.048689  -0.778470  -0.062883
     21       0.008701   0.000527   0.001602   0.007114  -0.002803  -0.000918
     22      -0.000480  -0.004006  -0.002642  -0.021565  -0.021002  -0.001152
     23      -0.009252  -0.002621  -0.003687  -0.027093  -0.015243  -0.003002
     24      -0.002380   0.002394  -0.002796   0.130108   0.018074  -0.114223
     25      -0.000152  -0.007544   0.005401  -0.538022  -0.070500   0.518140
     26      -0.001343   0.006221  -0.004656   0.457061   0.061897  -0.429747
     27       0.000311  -0.003644   0.011310  -0.629161   0.011027  -0.659440
     28      -0.002457   0.001704  -0.002471   0.093895  -0.001923   0.084530
     29       0.001076  -0.001898   0.004670  -0.265785   0.006313  -0.274503


-----------
IR SPECTRUM
-----------

 Mode    freq (cm**-1)   T**2         TX         TY         TZ
-------------------------------------------------------------------
   7:       203.71    0.402057  ( -0.598177   0.092071   0.189115)
   8:       364.97    0.735887  ( -0.198701   0.757860   0.349360)
   9:       370.06    2.888199  (  0.817460   1.369043   0.587946)
  10:       692.02   52.832244  ( -0.163052   5.273875   4.999190)
  11:       717.16   49.016844  ( -4.251382   1.655464   5.310558)
  12:       905.82    1.747246  (  0.613406  -0.471393  -1.071806)
  13:       928.41    6.279388  (  0.008448  -2.501597  -0.146042)
  14:      1024.04    8.959074  (  2.276633   1.596725  -1.107469)
  15:      1160.91    0.577332  ( -0.077702  -0.621874   0.429612)
  16:      1198.14    1.314983  ( -0.359448   0.328328   1.038258)
  17:      1257.48   11.209159  ( -1.412661   3.035373   0.007813)
  18:      1348.93    2.218559  ( -0.479301   0.218244   1.393269)
  19:      1401.70    5.545010  ( -1.267586  -1.179657   1.595821)
  20:      1421.42    7.540610  (  2.006566  -0.192559  -1.864732)
  21:      1452.06    8.282272  ( -1.028967  -1.372312  -2.310900)
  22:      1465.05    3.751247  ( -0.285721  -1.470894   1.227225)
  23:      2264.93    3.366457  ( -0.500895  -1.441385  -1.018808)
  24:      3010.28   47.964408  ( -5.617969   3.646158   1.763055)
  25:      3091.70   20.153650  (  1.490423   1.744951   3.858424)
  26:      3147.98   12.822227  (  1.993003   2.503029  -1.607797)
  27:      3162.12    4.198544  (  1.320667   1.068637  -1.145599)
  28:      3194.03    9.923991  (  0.780587  -2.198720   2.116673)
  29:      3290.13    3.143277  (  1.236728  -0.900742   0.895793)

The first frequency considered to be a vibration is 7
The total number of vibrations considered is 23


--------------------------
THERMOCHEMISTRY AT 298.15K
--------------------------

Temperature         ... 298.15 K
Pressure            ... 1.00 atm
Total Mass          ... 43.09 AMU

Throughout the following assumptions are being made:
  (1) The electronic state is orbitally nondegenerate
      but the spin degeneracy is treated
  (2) There are no thermally accessible electronically excited states
  (3) Hindered rotations indicated by low frequency modes are not
      treated as such but are treated as vibrations and this may
      cause some error
  (4) All equations used are the standard statistical mechanics
      equations for an ideal gas
  (5) All vibrations are strictly harmonic

freq.     203.71  E(vib)   ...       0.35 
freq.     364.97  E(vib)   ...       0.22 
freq.     370.06  E(vib)   ...       0.21 
freq.     692.02  E(vib)   ...       0.07 
freq.     717.16  E(vib)   ...       0.07 
freq.     905.82  E(vib)   ...       0.03 
freq.     928.41  E(vib)   ...       0.03 
freq.    1024.04  E(vib)   ...       0.02 
freq.    1160.91  E(vib)   ...       0.01 
freq.    1198.14  E(vib)   ...       0.01 
freq.    1257.48  E(vib)   ...       0.01 
freq.    1348.93  E(vib)   ...       0.01 
freq.    1401.70  E(vib)   ...       0.00 
freq.    1421.42  E(vib)   ...       0.00 
freq.    1452.06  E(vib)   ...       0.00 
freq.    1465.05  E(vib)   ...       0.00 
freq.    2264.93  E(vib)   ...       0.00 
freq.    3010.28  E(vib)   ...       0.00 
freq.    3091.70  E(vib)   ...       0.00 
freq.    3147.98  E(vib)   ...       0.00 
freq.    3162.12  E(vib)   ...       0.00 
freq.    3194.03  E(vib)   ...       0.00 
freq.    3290.13  E(vib)   ...       0.00 

------------
INNER ENERGY
------------

The inner energy is: U= E(el) + E(ZPE) + E(vib) + E(rot) + E(trans)
    E(el)   - is the total energy from the electronic structure calculation
              = E(kin-el) + E(nuc-el) + E(el-el) + E(nuc-nuc)
    E(ZPE)  - the the zero temperature vibrational energy from the frequency calculation
    E(vib)  - the the finite temperature correction to E(ZPE) due to population
              of excited vibrational states
    E(rot)  - is the rotational thermal energy
    E(trans)- is the translational thermal energy

Summary of contributions to the inner energy U:
Electronic energy                ...   -118.17683987 Eh
Zero point energy                ...      0.08445857 Eh      53.00 kcal/mol
Thermal vibrational correction   ...      0.00168146 Eh       1.06 kcal/mol
Thermal rotational correction    ...      0.00141627 Eh       0.89 kcal/mol
Thermal translational correction ...      0.00141627 Eh       0.89 kcal/mol
-----------------------------------------------------------------------
Total thermal energy                   -118.08786729 Eh


Summary of corrections to the electronic energy:
(perhaps to be used in another calculation)
Total thermal correction                  0.00451400 Eh       2.83 kcal/mol
Non-thermal (ZPE) correction              0.08445857 Eh      53.00 kcal/mol
-----------------------------------------------------------------------
Total correction                          0.08897258 Eh      55.83 kcal/mol


--------
ENTHALPY
--------

The enthalpy is H = U + kB*T
                kB is Boltzmann's constant
Total free energy                 ...   -118.08786729 Eh 
Thermal Enthalpy correction       ...      0.00094421 Eh       0.59 kcal/mol
-----------------------------------------------------------------------
Total Enthalpy                    ...   -118.08692308 Eh


Note: Rotational entropy computed according to Herzberg 
Infrared and Raman Spectra, Chapter V,1, Van Nostrand Reinhold, 1945 
Point Group:  C1, Symmetry Number:   1  
Rotational constants in cm-1:     1.258757     0.285632     0.253335 

Vibrational entropy computed according to the QRRHO of S. Grimme
Chem.Eur.J. 2012 18 9955


-------
ENTROPY
-------

The entropy contributions are T*S = T*(S(el)+S(vib)+S(rot)+S(trans))
     S(el)   - electronic entropy
     S(vib)  - vibrational entropy
     S(rot)  - rotational entropy
     S(trans)- translational entropy
The entropies will be listed as mutliplied by the temperature to get
units of energy

Electronic entropy                ...      0.00065446 Eh      0.41 kcal/mol
Vibrational entropy               ...      0.00258686 Eh      1.62 kcal/mol
Rotational entropy                ...      0.01064192 Eh      6.68 kcal/mol
Translational entropy             ...      0.01767888 Eh     11.09 kcal/mol
-----------------------------------------------------------------------
Final entropy term                ...      0.03156212 Eh     19.81 kcal/mol


-------------------
GIBBS FREE ENTHALPY
-------------------

The Gibbs free enthalpy is G = H - T*S

Total enthalpy                    ...   -118.08692308 Eh 
Total entropy correction          ...     -0.03156212 Eh    -19.81 kcal/mol
-----------------------------------------------------------------------
Final Gibbs free enthalpy         ...   -118.11848520 Eh

For completeness - the Gibbs free enthalpy minus the electronic energy
G-E(el)                           ...      0.05835467 Eh     36.62 kcal/mol




------------------------------------------------------------------------------- 
                    Intrinsic Reaction Coordinate Calculation                  
------------------------------------------------------------------------------- 

System:
Nr. of atoms                        .... 10
Algorithm: SD (steepest descent step) plus correction
Settings:
Max. no of cycles        MaxIter    .... 20
Direction                           .... Forward and backward
Initial displacement Hessian type   .... Read
Hessian Filename                    .... irc.hess
Following Hessian mode              .... 0
Initial displacement type           .... Length
Coordinate system following type    .... Cartesian
Length of steepest descent step     .... 0.150 bohr
Do parabolic fit 
  if SD step is uphill              .... YES
Do Correction to SD step            .... YES
Scaling for length of correction
  compared to SD step               .... 0.333
Do parabolic fit to SD correction   .... YES
Only interpolate for parabolic fit  .... YES
Do update to length of
  SD step and correction            .... YES
Convergence Tolerances:
  Max. Gradient            TolMAXG  ....  2.0000e-03 Eh/bohr
  RMS Gradient             TolRMSG  ....  5.0000e-04 Eh/bohr
Storing full IRC trajectory in      .... irc_IRC_Full.trj
Storing forward trajectory in       .... irc_IRC_F.trj
Storing backward trajectory in      .... irc_IRC_B.trj


 ...good, the file irc.hess exists
Reading the hessian file           ...... done

         *************************************************************
         *                          FORWARD IRC                      *
         *************************************************************

Iteration    E(Eh)      dE(kcal/mol)  max(|G|)   RMS(G) 
Convergence thresholds                0.002000  0.000500            
    0      -118.177625   -0.492682    0.010759  0.004015
    1      -118.187743   -6.349195    0.032884  0.011810
    2      -118.197724   -6.263257    0.036048  0.012573
    3      -118.207577   -6.182827    0.033803  0.011725
    4      -118.216592   -5.656563    0.028926  0.010050
    5      -118.223863   -4.563003    0.023266  0.007847
    6      -118.228932   -3.180852    0.017662  0.005766
    7      -118.232189   -2.043474    0.012122  0.003669
    8      -118.234500   -1.450271    0.007415  0.002477
    9      -118.236130   -1.022875    0.005022  0.001720
   10      -118.237208   -0.676670    0.002384  0.001188
   11      -118.237463   -0.160005    0.004350  0.001398
   12      -118.237527   -0.040044    0.002414  0.001003
   13      -118.237662   -0.084914    0.002142  0.000790
   14      -118.237788   -0.078947    0.001814  0.000694
   15      -118.237886   -0.061594    0.001626  0.000587
   16      -118.237964   -0.048932    0.001499  0.000505
   17      -118.237993   -0.018043    0.002020  0.000586
   18      -118.238000   -0.004021    0.001670  0.000502
   19      -118.238012   -0.007774    0.001402  0.000448

                      ***********************HURRAY********************
                      ***            THE IRC HAS CONVERGED          ***
                      *************************************************


         *************************************************************
         *                          BACKWARD IRC                     *
         *************************************************************

Iteration    E(Eh)      dE(kcal/mol)  max(|G|)   RMS(G) 
Convergence thresholds                0.002000  0.000500            
    0      -118.177600   -0.476913    0.010561  0.004049
    1      -118.187753   -6.370891    0.034015  0.011832
    2      -118.197616   -6.189203    0.037694  0.012523
    3      -118.207463   -6.179227    0.036181  0.011874
    4      -118.216761   -5.834418    0.033360  0.010670
    5      -118.224805   -5.047658    0.027569  0.008945
    6      -118.231223   -4.027524    0.021978  0.007150
    7      -118.235827   -2.889238    0.015940  0.005371
    8      -118.239128   -2.071529    0.011294  0.003778
    9      -118.241429   -1.443866    0.007353  0.002565
   10      -118.242819   -0.872149    0.004287  0.001507
   11      -118.243530   -0.445953    0.002126  0.000962
   12      -118.243619   -0.055736    0.002549  0.001096
   13      -118.243658   -0.024713    0.001959  0.000882
   14      -118.243757   -0.061920    0.001471  0.000747
   15      -118.243848   -0.056994    0.001316  0.000676
   16      -118.243924   -0.048109    0.001077  0.000616
   17      -118.243985   -0.038229    0.001162  0.000569
   18      -118.244033   -0.030264    0.000950  0.000554
   19      -118.244043   -0.005894    0.001263  0.000566

         *************************************************************
         *  MAXIMUM NUMBER OF ITERATIONS REACHED - ABORTING IRC RUN  *
         *************************************************************


---------------------------------------------------------------
                       IRC PATH SUMMARY              
---------------------------------------------------------------
All gradients are in Eh/Bohr.

Step       E(Eh)      dE(Eh)  max(|G|)   RMS(G)  
  1   -118.244043    -0.0672  0.001263  0.000566
  2   -118.244033    -0.0672  0.000950  0.000554
  3   -118.243985    -0.0671  0.001162  0.000569
  4   -118.243924    -0.0671  0.001077  0.000616
  5   -118.243848    -0.0670  0.001316  0.000676
  6   -118.243757    -0.0669  0.001471  0.000747
  7   -118.243658    -0.0668  0.001959  0.000882
  8   -118.243619    -0.0668  0.002549  0.001096
  9   -118.243530    -0.0667  0.002126  0.000962
 10   -118.242819    -0.0660  0.004287  0.001507
 11   -118.241429    -0.0646  0.007353  0.002565
 12   -118.239128    -0.0623  0.011294  0.003778
 13   -118.235827    -0.0590  0.015940  0.005371
 14   -118.231223    -0.0544  0.021978  0.007150
 15   -118.224805    -0.0480  0.027569  0.008945
 16   -118.216761    -0.0399  0.033360  0.010670
 17   -118.207463    -0.0306  0.036181  0.011874
 18   -118.197616    -0.0208  0.037694  0.012523
 19   -118.187753    -0.0109  0.034015  0.011832
 20   -118.177600    -0.0008  0.010561  0.004049
 21   -118.176840     0.0000  0.000373  0.000144 <= TS
 22   -118.177625    -0.0008  0.010759  0.004015
 23   -118.187743    -0.0109  0.032884  0.011810
 24   -118.197724    -0.0209  0.036048  0.012573
 25   -118.207577    -0.0307  0.033803  0.011725
 26   -118.216592    -0.0398  0.028926  0.010050
 27   -118.223863    -0.0470  0.023266  0.007847
 28   -118.228932    -0.0521  0.017662  0.005766
 29   -118.232189    -0.0553  0.012122  0.003669
 30   -118.234500    -0.0577  0.007415  0.002477
 31   -118.236130    -0.0593  0.005022  0.001720
 32   -118.237208    -0.0604  0.002384  0.001188
 33   -118.237463    -0.0606  0.004350  0.001398
 34   -118.237527    -0.0607  0.002414  0.001003
 35   -118.237662    -0.0608  0.002142  0.000790
 36   -118.237788    -0.0609  0.001814  0.000694
 37   -118.237886    -0.0610  0.001626  0.000587
 38   -118.237964    -0.0611  0.001499  0.000505
 39   -118.237993    -0.0612  0.002020  0.000586
 40   -118.238000    -0.0612  0.001670  0.000502
 41   -118.238012    -0.0612  0.001402  0.000448
[1621346207.926720] [ty2019:35977:0]            sys.c:618  UCX  ERROR shmget(size=2097152 flags=0xfb0) for mm_recv_desc failed: Operation not permitted, please check shared memory limits by 'ipcs -l'
[1621346207.934571] [ty2019:35972:0]            sys.c:618  UCX  ERROR shmget(size=2097152 flags=0xfb0) for mm_recv_desc failed: Operation not permitted, please check shared memory limits by 'ipcs -l'
[1621346207.946194] [ty2019:35975:0]            sys.c:618  UCX  ERROR shmget(size=2097152 flags=0xfb0) for mm_recv_desc failed: Operation not permitted, please check shared memory limits by 'ipcs -l'
[1621346207.947049] [ty2019:35974:0]            sys.c:618  UCX  ERROR shmget(size=2097152 flags=0xfb0) for mm_recv_desc failed: Operation not permitted, please check shared memory limits by 'ipcs -l'
[1621346207.947093] [ty2019:35979:0]            sys.c:618  UCX  ERROR shmget(size=2097152 flags=0xfb0) for mm_recv_desc failed: Operation not permitted, please check shared memory limits by 'ipcs -l'
[1621346207.947933] [ty2019:35978:0]            sys.c:618  UCX  ERROR shmget(size=2097152 flags=0xfb0) for mm_recv_desc failed: Operation not permitted, please check shared memory limits by 'ipcs -l'
[1621346207.948002] [ty2019:35973:0]            sys.c:618  UCX  ERROR shmget(size=2097152 flags=0xfb0) for mm_recv_desc failed: Operation not permitted, please check shared memory limits by 'ipcs -l'
[1621346207.948044] [ty2019:35976:0]            sys.c:618  UCX  ERROR shmget(size=2097152 flags=0xfb0) for mm_recv_desc failed: Operation not permitted, please check shared memory limits by 'ipcs -l'
[1621346207.955932] [ty2019:35974:0]            sys.c:618  UCX  ERROR shmget(size=2097152 flags=0xb80) for ucp_am_bufs failed: Operation not permitted, please check shared memory limits by 'ipcs -l'
[1621346207.956016] [ty2019:35978:0]            sys.c:618  UCX  ERROR shmget(size=2097152 flags=0xb80) for ucp_am_bufs failed: Operation not permitted, please check shared memory limits by 'ipcs -l'
[1621346207.956024] [ty2019:35972:0]            sys.c:618  UCX  ERROR shmget(size=2097152 flags=0xb80) for ucp_am_bufs failed: Operation not permitted, please check shared memory limits by 'ipcs -l'
[1621346207.956023] [ty2019:35976:0]            sys.c:618  UCX  ERROR shmget(size=2097152 flags=0xb80) for ucp_am_bufs failed: Operation not permitted, please check shared memory limits by 'ipcs -l'
[1621346207.956224] [ty2019:35973:0]            sys.c:618  UCX  ERROR shmget(size=2097152 flags=0xb80) for ucp_am_bufs failed: Operation not permitted, please check shared memory limits by 'ipcs -l'
[1621346207.956337] [ty2019:35977:0]            sys.c:618  UCX  ERROR shmget(size=2097152 flags=0xb80) for ucp_am_bufs failed: Operation not permitted, please check shared memory limits by 'ipcs -l'
[1621346207.956667] [ty2019:35975:0]            sys.c:618  UCX  ERROR shmget(size=2097152 flags=0xb80) for ucp_am_bufs failed: Operation not permitted, please check shared memory limits by 'ipcs -l'

Timings for individual modules:

Sum of individual times         ...      808.540 sec (=  13.476 min)
GTO integral calculation        ...      147.912 sec (=   2.465 min)  18.3 %
SCF iterations                  ...      537.283 sec (=   8.955 min)  66.5 %
SCF Gradient evaluation         ...      111.290 sec (=   1.855 min)  13.8 %
Analytical frequency calculation...       12.055 sec (=   0.201 min)   1.5 %
                             ****ORCA TERMINATED NORMALLY****
TOTAL RUN TIME: 0 days 0 hours 13 minutes 47 seconds 818 msec
