
                                 *****************
                                 * O   R   C   A *
                                 *****************

           --- An Ab Initio, DFT and Semiempirical electronic structure package ---

                  #######################################################
                  #                        -***-                        #
                  #          Department of theory and spectroscopy      #
                  #               Directorship: Frank Neese             #
                  #        Max Planck Institute fuer Kohlenforschung    #
                  #                Kaiser Wilhelm Platz 1               #
                  #                 D-45470 Muelheim/Ruhr               #
                  #                      Germany                        #
                  #                                                     #
                  #                  All rights reserved                #
                  #                        -***-                        #
                  #######################################################


                         Program Version 4.1.0  - RELEASE  -


 With contributions from (in alphabetic order):
   Daniel Aravena         : Magnetic Properties
   Michael Atanasov       : Ab Initio Ligand Field Theory
   Alexander A. Auer      : GIAO ZORA
   Ute Becker             : Parallelization
   Giovanni Bistoni       : ED, Open-shell LED
   Martin Brehm           : Molecular dynamics
   Dmytro Bykov           : SCF Hessian
   Vijay G. Chilkuri      : MRCI spin determinant printing
   Dipayan Datta          : RHF DLPNO-CCSD density
   Achintya Kumar Dutta   : EOM-CC, STEOM-CC
   Dmitry Ganyushin       : Spin-Orbit,Spin-Spin,Magnetic field MRCI
   Miquel Garcia          : C-PCM Hessian
   Yang Guo               : DLPNO-NEVPT2, CIM, IAO-localization
   Andreas Hansen         : Spin unrestricted coupled pair/coupled cluster methods
   Benjamin Helmich-Paris : CASSCF linear response (MC-RPA)
   Lee Huntington         : MR-EOM, pCC
   Robert Izsak           : Overlap fitted RIJCOSX, COSX-SCS-MP3, EOM
   Christian Kollmar      : KDIIS, OOCD, Brueckner-CCSD(T), CCSD density
   Simone Kossmann        : Meta GGA functionals, TD-DFT gradient, OOMP2, MP2 Hessian
   Martin Krupicka        : AUTO-CI
   Lucas Lang             : DCDCAS
   Dagmar Lenk            : GEPOL surface, SMD
   Dimitrios Liakos       : Extrapolation schemes; parallel MDCI
   Dimitrios Manganas     : ROCIS; embedding schemes
   Dimitrios Pantazis     : SARC Basis sets
   Taras Petrenko         : DFT Hessian,TD-DFT gradient, ASA, ECA, R-Raman, ABS, FL, XAS/XES, NRVS
   Peter Pinski           : DLPNO-MP2, DLPNO-MP2 Gradient
   Christoph Reimann      : Effective Core Potentials
   Marius Retegan         : Local ZFS, SOC
   Christoph Riplinger    : Optimizer, TS searches, QM/MM, DLPNO-CCSD(T), (RO)-DLPNO pert. Triples
   Tobias Risthaus        : Range-separated hybrids, TD-DFT gradient, RPA, STAB
   Michael Roemelt        : Restricted open shell CIS
   Masaaki Saitow         : Open-shell DLPNO
   Barbara Sandhoefer     : DKH picture change effects
   Avijit Sen             : IP-ROCIS
   Kantharuban Sivalingam : CASSCF convergence, NEVPT2, FIC-MRCI
   Bernardo de Souza      : ESD, SOC TD-DFT
   Georgi Stoychev        : AutoAux, RI-MP2 NMR
   Willem Van den Heuvel  : Paramagnetic NMR
   Boris Wezisla          : Elementary symmetry handling
   Frank Wennmohs         : Technical directorship


 We gratefully acknowledge several colleagues who have allowed us to
 interface, adapt or use parts of their codes:
   Stefan Grimme, W. Hujo, H. Kruse,             : VdW corrections, initial TS optimization,
                  C. Bannwarth                     DFT functionals, gCP, sTDA/sTD-DF
   Ed Valeev                                     : LibInt (2-el integral package), F12 methods
   Garnet Chan, S. Sharma, J. Yang, R. Olivares  : DMRG
   Ulf Ekstrom                                   : XCFun DFT Library
   Mihaly Kallay                                 : mrcc  (arbitrary order and MRCC methods)
   Andreas Klamt, Michael Diedenhofen            : otool_cosmo (COSMO solvation model)
   Jiri Pittner, Ondrej Demel                    : Mk-CCSD
   Frank Weinhold                                : gennbo (NPA and NBO analysis)
   Christopher J. Cramer and Donald G. Truhlar   : smd solvation model
   Lars Goerigk                                  : TD-DFT with DH, B97 family of functionals
   V. Asgeirsson, H. Jonsson                     : NEB implementation
   FAccTs GmbH                                   : IRC, NEB, NEB-TS, Multilevel


 Your calculation uses the libint2 library for the computation of 2-el integrals
 For citations please refer to: http://libint.valeyev.net

 This ORCA versions uses:
   CBLAS   interface :  Fast vector & matrix operations
   LAPACKE interface :  Fast linear algebra routines
   SCALAPACK package :  Parallel linear algebra routines


Your calculation utilizes the atom-pairwise dispersion correction
with the Becke-Johnson damping scheme (D3BJ)
Cite in your paper:
S.Grimme, S.Ehrlich, L.Goerigk, J Comput Chem, (2011), 32, 1456–1465 
S.Grimme, J.Antony, S.Ehrlich and H.Krieg, J.Chem.Phys., 132, (2010), 154104 
   

----- Orbital basis set information -----
Your calculation utilizes the basis: def2-SVP
   F. Weigend and R. Ahlrichs, Phys. Chem. Chem. Phys. 7, 3297 (2005).

----- AuxJ basis set information -----
Your calculation utilizes the auxiliary basis: def2/J
   F. Weigend, Phys. Chem. Chem. Phys. 8, 1057 (2006).

cite the ECPs for Pd [Def2-ECP] as follows:
Ce-Yb(ecp-28): M. Dolg, H. Stoll, H.Preuss, J. Chem. Phys., 1989, 90, 1730-1734.
Y-Cd(ecp-28), Hf-Hg(ecp-46): D. Andrae,U. Haeussermann, M. Dolg, H. Stoll, H. Preuss, Theor. Chim. Acta, 1990, 77, 123-141.
In-Sb(ecp-28), Tl-Bi(ecp-46): B. Metz, H. Stoll, M. Dolg, J. Chem. Phys., 2000, 113, 2563-2569.
Te-Xe(ecp-28), Po-Rn(ecp-46): K. A. Peterson, D. Figgen, E. Goll, H. Stoll, M. Dolg, J. Chem. Phys., 2003, 119, 11113-11123.
Rb(ecp-28), Cs(ecp-46): T. Leininger, A. Nicklass, W. Kuechle, H. Stoll, M. Dolg, A. Bergner, Chem. Phys. Lett., 1996, 255, 274-280.
Sr(ecp-28), Ba(ecp-46): M. Kaupp, P. V. Schleyer, H. Stoll and H. Preuss, J. Chem. Phys., 1991, 94, 1360-1366.
La(ecp-46): M. Dolg, H. Stoll, A. Savin, H. Preuss, Theor. Chim. Acta, 1989, 75, 173-194.
Lu(ecp-28): X. Cao, M. Dolg, J. Chem. Phys., 2001, 115, 7348-7355.

ECP parameters for Pd [Def2-ECP] have been obtained from:
TURBOMOLE (7.0.2)

================================================================================
                                        WARNINGS
                       Please study these warnings very carefully!
================================================================================


INFO   : the flag for use of LIBINT has been found!

================================================================================
                                       INPUT FILE
================================================================================
NAME = cage_sp.inp
|  1> ! Freq PBE0 D3BJ def2-SVP RIJCOSX def2/J PAL8
|  2> %maxcore 4000
|  3> *xyz 4 1
|  4>   Pd  6.05380545344400     -0.00053833723629      0.00065789990174
|  5>   Pd  -6.05380850669703      0.00096024905115     -0.00072161101376
|  6>   N   -6.03691076157997      1.43490020348239     -1.43693296087502
|  7>   N   6.03698394244134     -1.43539021079008      1.43595711610311
|  8>   N   6.03680414131428      1.43432766348921     -1.43465173774917
|  9>   N   -6.03676216799688     -1.43297974310239      1.43551361727011
| 10>   N   -6.03583351615893     -1.43468582170423     -1.43524619181512
| 11>   N   6.03576718297587      1.43419494625196      1.43609484284770
| 12>   N   6.03791743553190     -1.43521979269372     -1.43481386771402
| 13>   N   -6.03797366584547      1.43656818384646      1.43382462673900
| 14>   C   -7.18579408167806      1.92329701029216     -1.92896862236976
| 15>   C   7.18588246617073     -1.92426954045021      1.92747804096432
| 16>   H   -8.11491252490674      1.51608239198961     -1.52289166260609
| 17>   H   8.11499081257654     -1.51695495113642      1.52147707233253
| 18>   C   -7.18879621461891      2.90571109057137     -2.91307484603712
| 19>   C   7.18890805418458     -2.90729271414732      2.91097827040143
| 20>   H   -8.13676880064215      3.28685768816682     -3.29702074947803
| 21>   H   8.13689043511789     -3.28882846816352      3.29451379360884
| 22>   C   -5.98075436080022      3.39020019955759     -3.39533202346924
| 23>   C   5.98087554147181     -3.39184888976635      3.39319932917257
| 24>   H   -5.95375882064566      4.16183956415485     -4.16792060447812
| 25>   H   5.95389811991702     -4.16390610644991      4.16537103235555
| 26>   C   -4.77375203956444      2.87830235920245     -2.87956286922596
| 27>   C   4.77385992468874     -2.87942287793973      2.87798484545869
| 28>   C   -4.86406946834259      1.88909138957988     -1.88901794430650
| 29>   C   4.86415605811671     -1.88965773025616      1.88799504021281
| 30>   H   -3.95769391430576      1.45963209482392     -1.45604422018413
| 31>   H   3.95777018348435     -1.45976158705430      1.45547701958348
| 32>   C   -3.51228584985003      3.33670653105170     -3.33407515811056
| 33>   C   3.51239583847730     -3.33770518388267      3.33262791037780
| 34>   C   -2.44760377011512      3.75388273915011     -3.75395358325432
| 35>   C   2.44770509917493     -3.75482474192420      3.75254256426027
| 36>   C   -1.21393652079125      4.25113145928853     -4.26046163812490
| 37>   C   1.21403229008427     -4.25198748922451      4.25912323596983
| 38>   C   -1.20507959643150      5.23943016569580     -5.26396774739828
| 39>   C   1.20516616086179     -5.24071106440409      5.26221034037935
| 40>   H   -2.14981211548884      5.62308583098510     -5.65320002273285
| 41>   H   2.14989510471074     -5.62481461341040      5.65100926249211
| 42>   C   0.00096627767311      5.72518632393808     -5.75708170747618
| 43>   C   -0.00088363979126     -5.72630234576364      5.75547567483977
| 44>   H   0.00128203271118      6.49143082667821     -6.53521555904317
| 45>   H   -0.00120568986401     -6.49287046947728      6.53329089599825
| 46>   C   1.20663146548015      5.23944210828217     -5.26302367044101
| 47>   C   -1.20654523030944     -5.23996484251692      5.26199205017094
| 48>   H   2.15165645952619      5.62310906246202     -5.65153548191852
| 49>   H   -2.15157329624530     -5.62350236858596      5.65062416615656
| 50>   C   1.21472217899496      4.25113633043179     -4.25951800377747
| 51>   C   -1.21462904435358     -4.25123493911777      4.25890391174075
| 52>   C   0.00019785533782      3.75959823262332     -3.76093721174306
| 53>   C   -0.00009920041090     -3.75987036280532      3.76016249485377
| 54>   H   -0.00010485604935      2.99467782182647     -2.98296445044206
| 55>   H   0.00020996140201     -2.99461712673118      2.98251751380636
| 56>   C   7.18575340177058      1.92344759005428     -1.92582186519694
| 57>   C   -7.18569576100363     -1.92116646203324      1.92764709751947
| 58>   H   8.11481981138913      1.51625883998253     -1.51960017911304
| 59>   H   -8.11477287938869     -1.51373669325790      1.52169060372999
| 60>   C   7.18888491704589      2.90657620437236     -2.90921709850788
| 61>   C   -7.18880015978964     -2.90363749767132      2.91169863740144
| 62>   H   8.13690878948374      3.28830718772173     -3.29245484538515
| 63>   H   -8.13681249996352     -3.28459462433848      3.29573455456259
| 64>   C   5.98089982327488      3.39099732546561     -3.39168793184569
| 65>   C   -5.98080364231716     -3.38843763693356      3.39376047675017
| 66>   H   5.95398263225634      4.16315738309049     -4.16375846686760
| 67>   H   -5.95386788073461     -4.16015243459486      4.16627569172999
| 68>   C   4.77383201828747      2.87832287525127     -2.87683536930777
| 69>   C   -4.77374973034819     -2.87676951377581      2.87787544417986
| 70>   C   4.86402411293285      1.88844207496376     -1.88695628503252
| 71>   C   -4.86396855283980     -1.88743839077708      1.88744514909191
| 72>   H   3.95759032164830      1.45833842880390     -1.45474407025516
| 73>   H   -3.95754860941910     -1.45812838146200      1.45441546470078
| 74>   C   3.51245581482738      3.33661711140916     -3.33170765926164
| 75>   C   -3.51236756165935     -3.33562895681385      3.33216924938678
| 76>   C   2.44801584139250      3.75387657846918     -3.75211623244834
| 77>   C   -2.44792290441623     -3.75340656734423      3.75205562081468
| 78>   C   -7.18452179457229     -1.92409066915526     -1.92674336225191
| 79>   C   7.18444259377811      1.92318166211086      1.92803674707108
| 80>   H   -8.11379684554918     -1.51664865213507     -1.52125571671798
| 81>   H   8.11372698159248      1.51590355974201      1.52240593087622
| 82>   C   -7.18714970716493     -2.90777678467904     -2.90957843241208
| 83>   C   7.18704997385621      2.90624978430618      2.91148819154513
| 84>   H   -8.13497511628477     -3.28970914891168     -3.29310384659057
| 85>   H   8.13486715437692      3.28785153174752      3.29536279985609
| 86>   C   -5.97891091867647     -3.39248721510710     -3.39111049273445
| 87>   C   5.97880256656545      3.39080678542945      3.39314896458362
| 88>   H   -5.95157450767400     -4.16510878999559     -4.16270445252945
| 89>   H   5.95145049882475      4.16299892884176      4.16517219314912
| 90>   C   -4.77210808023536     -2.87952528804640     -2.87591711480807
| 91>   C   4.77201123253918      2.87830599681695      2.87747043047037
| 92>   C   -4.86280658509797     -1.88905728951099     -1.88666655200171
| 93>   C   4.86272856897257      1.88841317558959      1.88764343171479
| 94>   H   -3.95660035960499     -1.45869073698080     -1.45423840322273
| 95>   H   3.95653085357667      1.45843078577032      1.45481590635249
| 96>   C   -3.51054158882874     -3.33815239855295     -3.32993590970464
| 97>   C   3.51044005826450      3.33697336424403      3.33143457262942
| 98>   C   -2.44603676736768     -3.75600718046365     -3.74959407176086
| 99>   C   2.44592945931931      3.75487798526916      3.75102736235522
|100>   C   -1.21271404147357     -4.25401578758731     -4.25619747496448
|101>   C   1.21261375239246      4.25291063745823      4.25762218145660
|102>   C   0.00180511562250     -3.76201998461077     -3.75806744745078
|103>   C   -0.00191413928094      3.76156914959287      3.75887054358162
|104>   H   0.00211109187962     -2.99613238290181     -2.98104673326533
|105>   H   -0.00223613989098      2.99610868655818      2.98142874162727
|106>   C   1.21594719984525     -4.25425109396339     -4.25690385569724
|107>   C   -1.21604589918914      4.25392087295605      4.25761313152733
|108>   C   1.20710188741587     -5.24372295069735     -5.25925012336451
|109>   C   -1.20718191507659      5.24284966129874      5.26049453074289
|110>   H   2.15183708464134     -5.62790866120669     -5.64795169571744
|111>   H   -2.15190964132070      5.62712527652365      5.64912545370363
|112>   C   0.00105606163573     -5.72995817135230     -5.75189415912222
|113>   C   -0.00112683304849      5.72842402903487      5.75376728820654
|114>   H   0.00074459630394     -6.49713826169794     -6.52910560295273
|115>   H   -0.00080072802472      6.49519045433629      6.53138700044156
|116>   C   -1.20460946335592     -5.24352138479047     -5.25852321227018
|117>   C   1.20452912179469      5.24187194075724      5.26048542859379
|118>   H   -2.14963118991640     -5.62757797495226     -5.64665904892199
|119>   H   2.14955892296958      5.62542548514535      5.64909865534653
|120>   C   7.18706147542203     -1.92345720206302     -1.92639864325472
|121>   C   -7.18713437059408      1.92581017082409      1.92437085667473
|122>   H   8.11597170849027     -1.51574250208447     -1.52034221074946
|123>   H   -8.11603298739150      1.51839852675828      1.51798522471640
|124>   C   7.19056322545404     -2.90632020265233     -2.91006158361224
|125>   C   -7.19066440402664      2.90933004051444      2.90737772978154
|126>   H   8.13873146130782     -3.28732034284408     -3.29367173287847
|127>   H   -8.13884524743423      3.29116502423314      3.29012553151728
|128>   C   5.98277382085222     -3.39147200810183     -3.39230255599518
|129>   C   -5.98288735788021      3.39402280861692      3.39011318710435
|130>   H   5.95619281642723     -4.16349546400231     -4.16452220005482
|131>   H   -5.95632954088484      4.16648742056777      4.16189275772717
|132>   C   4.77550746636714     -2.87975247239879     -2.87698070298151
|133>   C   -4.77560529831520      2.88122806957120      2.87589796046157
|134>   C   4.86532208875653     -1.89002167928549     -1.88691377201705
|135>   C   -4.86539309496635      1.89095542291382      1.88637340566059
|136>   H   3.95872641003682     -1.46063605583766     -1.45432921979442
|137>   H   -3.95878242293391      1.46072044791554      1.45466569592434
|138>   C   -3.51433199373973      3.33957552151829      3.33099766272291
|139>   C   -2.44969259790716      3.75676351498140      3.75096854742619
|140>   C   2.44958810542653     -3.75646328397280     -3.75086184108499
|141>   C   3.51422809818404     -3.33873929012309     -3.33142228352330
|142> *
|143> 
|144>                          ****END OF INPUT****
================================================================================

                       ****************************
                       * Single Point Calculation *
                       ****************************

---------------------------------
CARTESIAN COORDINATES (ANGSTROEM)
---------------------------------
  Pd     6.053805   -0.000538    0.000658
  Pd    -6.053809    0.000960   -0.000722
  N     -6.036911    1.434900   -1.436933
  N      6.036984   -1.435390    1.435957
  N      6.036804    1.434328   -1.434652
  N     -6.036762   -1.432980    1.435514
  N     -6.035834   -1.434686   -1.435246
  N      6.035767    1.434195    1.436095
  N      6.037917   -1.435220   -1.434814
  N     -6.037974    1.436568    1.433825
  C     -7.185794    1.923297   -1.928969
  C      7.185882   -1.924270    1.927478
  H     -8.114913    1.516082   -1.522892
  H      8.114991   -1.516955    1.521477
  C     -7.188796    2.905711   -2.913075
  C      7.188908   -2.907293    2.910978
  H     -8.136769    3.286858   -3.297021
  H      8.136890   -3.288828    3.294514
  C     -5.980754    3.390200   -3.395332
  C      5.980876   -3.391849    3.393199
  H     -5.953759    4.161840   -4.167921
  H      5.953898   -4.163906    4.165371
  C     -4.773752    2.878302   -2.879563
  C      4.773860   -2.879423    2.877985
  C     -4.864069    1.889091   -1.889018
  C      4.864156   -1.889658    1.887995
  H     -3.957694    1.459632   -1.456044
  H      3.957770   -1.459762    1.455477
  C     -3.512286    3.336707   -3.334075
  C      3.512396   -3.337705    3.332628
  C     -2.447604    3.753883   -3.753954
  C      2.447705   -3.754825    3.752543
  C     -1.213937    4.251131   -4.260462
  C      1.214032   -4.251987    4.259123
  C     -1.205080    5.239430   -5.263968
  C      1.205166   -5.240711    5.262210
  H     -2.149812    5.623086   -5.653200
  H      2.149895   -5.624815    5.651009
  C      0.000966    5.725186   -5.757082
  C     -0.000884   -5.726302    5.755476
  H      0.001282    6.491431   -6.535216
  H     -0.001206   -6.492870    6.533291
  C      1.206631    5.239442   -5.263024
  C     -1.206545   -5.239965    5.261992
  H      2.151656    5.623109   -5.651535
  H     -2.151573   -5.623502    5.650624
  C      1.214722    4.251136   -4.259518
  C     -1.214629   -4.251235    4.258904
  C      0.000198    3.759598   -3.760937
  C     -0.000099   -3.759870    3.760162
  H     -0.000105    2.994678   -2.982964
  H      0.000210   -2.994617    2.982518
  C      7.185753    1.923448   -1.925822
  C     -7.185696   -1.921166    1.927647
  H      8.114820    1.516259   -1.519600
  H     -8.114773   -1.513737    1.521691
  C      7.188885    2.906576   -2.909217
  C     -7.188800   -2.903637    2.911699
  H      8.136909    3.288307   -3.292455
  H     -8.136812   -3.284595    3.295735
  C      5.980900    3.390997   -3.391688
  C     -5.980804   -3.388438    3.393760
  H      5.953983    4.163157   -4.163758
  H     -5.953868   -4.160152    4.166276
  C      4.773832    2.878323   -2.876835
  C     -4.773750   -2.876770    2.877875
  C      4.864024    1.888442   -1.886956
  C     -4.863969   -1.887438    1.887445
  H      3.957590    1.458338   -1.454744
  H     -3.957549   -1.458128    1.454415
  C      3.512456    3.336617   -3.331708
  C     -3.512368   -3.335629    3.332169
  C      2.448016    3.753877   -3.752116
  C     -2.447923   -3.753407    3.752056
  C     -7.184522   -1.924091   -1.926743
  C      7.184443    1.923182    1.928037
  H     -8.113797   -1.516649   -1.521256
  H      8.113727    1.515904    1.522406
  C     -7.187150   -2.907777   -2.909578
  C      7.187050    2.906250    2.911488
  H     -8.134975   -3.289709   -3.293104
  H      8.134867    3.287852    3.295363
  C     -5.978911   -3.392487   -3.391110
  C      5.978803    3.390807    3.393149
  H     -5.951575   -4.165109   -4.162704
  H      5.951450    4.162999    4.165172
  C     -4.772108   -2.879525   -2.875917
  C      4.772011    2.878306    2.877470
  C     -4.862807   -1.889057   -1.886667
  C      4.862729    1.888413    1.887643
  H     -3.956600   -1.458691   -1.454238
  H      3.956531    1.458431    1.454816
  C     -3.510542   -3.338152   -3.329936
  C      3.510440    3.336973    3.331435
  C     -2.446037   -3.756007   -3.749594
  C      2.445929    3.754878    3.751027
  C     -1.212714   -4.254016   -4.256197
  C      1.212614    4.252911    4.257622
  C      0.001805   -3.762020   -3.758067
  C     -0.001914    3.761569    3.758871
  H      0.002111   -2.996132   -2.981047
  H     -0.002236    2.996109    2.981429
  C      1.215947   -4.254251   -4.256904
  C     -1.216046    4.253921    4.257613
  C      1.207102   -5.243723   -5.259250
  C     -1.207182    5.242850    5.260495
  H      2.151837   -5.627909   -5.647952
  H     -2.151910    5.627125    5.649125
  C      0.001056   -5.729958   -5.751894
  C     -0.001127    5.728424    5.753767
  H      0.000745   -6.497138   -6.529106
  H     -0.000801    6.495190    6.531387
  C     -1.204609   -5.243521   -5.258523
  C      1.204529    5.241872    5.260485
  H     -2.149631   -5.627578   -5.646659
  H      2.149559    5.625425    5.649099
  C      7.187061   -1.923457   -1.926399
  C     -7.187134    1.925810    1.924371
  H      8.115972   -1.515743   -1.520342
  H     -8.116033    1.518399    1.517985
  C      7.190563   -2.906320   -2.910062
  C     -7.190664    2.909330    2.907378
  H      8.138731   -3.287320   -3.293672
  H     -8.138845    3.291165    3.290126
  C      5.982774   -3.391472   -3.392303
  C     -5.982887    3.394023    3.390113
  H      5.956193   -4.163495   -4.164522
  H     -5.956330    4.166487    4.161893
  C      4.775507   -2.879752   -2.876981
  C     -4.775605    2.881228    2.875898
  C      4.865322   -1.890022   -1.886914
  C     -4.865393    1.890955    1.886373
  H      3.958726   -1.460636   -1.454329
  H     -3.958782    1.460720    1.454666
  C     -3.514332    3.339576    3.330998
  C     -2.449693    3.756764    3.750969
  C      2.449588   -3.756463   -3.750862
  C      3.514228   -3.338739   -3.331422

----------------------------
CARTESIAN COORDINATES (A.U.)
----------------------------
  NO LB      ZA    FRAG     MASS         X           Y           Z
   0 Pd   18.0000*   0   106.400   11.440034   -0.001017    0.001243
   1 Pd   18.0000*   0   106.400  -11.440040    0.001815   -0.001364
   2 N     7.0000    0    14.007  -11.408108    2.711568   -2.715410
   3 N     7.0000    0    14.007   11.408246   -2.712494    2.713566
   4 N     7.0000    0    14.007   11.407907    2.710486   -2.711099
   5 N     7.0000    0    14.007  -11.407827   -2.707939    2.712728
   6 N     7.0000    0    14.007  -11.406072   -2.711163   -2.712222
   7 N     7.0000    0    14.007   11.405947    2.710236    2.713826
   8 N     7.0000    0    14.007   11.410010   -2.712172   -2.711405
   9 N     7.0000    0    14.007  -11.410117    2.714720    2.709536
  10 C     6.0000    0    12.011  -13.579183    3.634505   -3.645222
  11 C     6.0000    0    12.011   13.579350   -3.636342    3.642406
  12 H     1.0000    0     1.008  -15.334962    2.864981   -2.877848
  13 H     1.0000    0     1.008   15.335110   -2.866629    2.875175
  14 C     6.0000    0    12.011  -13.584856    5.490998   -5.504914
  15 C     6.0000    0    12.011   13.585067   -5.493987    5.500952
  16 H     1.0000    0     1.008  -15.376265    6.211261   -6.230466
  17 H     1.0000    0     1.008   15.376495   -6.214985    6.225729
  18 C     6.0000    0    12.011  -11.301988    6.406550   -6.416248
  19 C     6.0000    0    12.011   11.302217   -6.409665    6.412217
  20 H     1.0000    0     1.008  -11.250974    7.864737   -7.876228
  21 H     1.0000    0     1.008   11.251237   -7.868642    7.871410
  22 C     6.0000    0    12.011   -9.021084    5.439203   -5.441585
  23 C     6.0000    0    12.011    9.021288   -5.441321    5.438603
  24 C     6.0000    0    12.011   -9.191759    3.569865   -3.569727
  25 C     6.0000    0    12.011    9.191923   -3.570936    3.567794
  26 H     1.0000    0     1.008   -7.478958    2.758305   -2.751525
  27 H     1.0000    0     1.008    7.479102   -2.758550    2.750453
  28 C     6.0000    0    12.011   -6.637258    6.305462   -6.300489
  29 C     6.0000    0    12.011    6.637466   -6.307349    6.297754
  30 C     6.0000    0    12.011   -4.625301    7.093810   -7.093944
  31 C     6.0000    0    12.011    4.625492   -7.095590    7.091278
  32 C     6.0000    0    12.011   -2.294008    8.033474   -8.051106
  33 C     6.0000    0    12.011    2.294189   -8.035092    8.048576
  34 C     6.0000    0    12.011   -2.277270    9.901088   -9.947457
  35 C     6.0000    0    12.011    2.277434   -9.903509    9.944136
  36 H     1.0000    0     1.008   -4.062556   10.626092  -10.683000
  37 H     1.0000    0     1.008    4.062713  -10.629359   10.678860
  38 C     6.0000    0    12.011    0.001826   10.819034  -10.879308
  39 C     6.0000    0    12.011   -0.001670  -10.821143   10.876273
  40 H     1.0000    0     1.008    0.002423   12.267026  -12.349768
  41 H     1.0000    0     1.008   -0.002278  -12.269747   12.346131
  42 C     6.0000    0    12.011    2.280203    9.901111   -9.945673
  43 C     6.0000    0    12.011   -2.280040   -9.902099    9.943724
  44 H     1.0000    0     1.008    4.066041   10.626136  -10.679854
  45 H     1.0000    0     1.008   -4.065884  -10.626879   10.678132
  46 C     6.0000    0    12.011    2.295492    8.033483   -8.049322
  47 C     6.0000    0    12.011   -2.295316   -8.033670    8.048162
  48 C     6.0000    0    12.011    0.000374    7.104611   -7.107141
  49 C     6.0000    0    12.011   -0.000187   -7.105125    7.105677
  50 H     1.0000    0     1.008   -0.000198    5.659121   -5.636986
  51 H     1.0000    0     1.008    0.000397   -5.659006    5.636141
  52 C     6.0000    0    12.011   13.579106    3.634789   -3.639276
  53 C     6.0000    0    12.011  -13.578997   -3.630478    3.642725
  54 H     1.0000    0     1.008   15.334787    2.865314   -2.871628
  55 H     1.0000    0     1.008  -15.334698   -2.860548    2.875579
  56 C     6.0000    0    12.011   13.585024    5.492633   -5.497624
  57 C     6.0000    0    12.011  -13.584864   -5.487080    5.502313
  58 H     1.0000    0     1.008   15.376529    6.214000   -6.221838
  59 H     1.0000    0     1.008  -15.376347   -6.206984    6.228036
  60 C     6.0000    0    12.011   11.302263    6.408056   -6.409361
  61 C     6.0000    0    12.011  -11.302081   -6.403219    6.413278
  62 H     1.0000    0     1.008   11.251397    7.867227   -7.868363
  63 H     1.0000    0     1.008  -11.251180   -7.861549    7.873120
  64 C     6.0000    0    12.011    9.021235    5.439242   -5.436431
  65 C     6.0000    0    12.011   -9.021080   -5.436307    5.438396
  66 C     6.0000    0    12.011    9.191673    3.568638   -3.565831
  67 C     6.0000    0    12.011   -9.191568   -3.566742    3.566754
  68 H     1.0000    0     1.008    7.478762    2.755860   -2.749068
  69 H     1.0000    0     1.008   -7.478683   -2.755463    2.748447
  70 C     6.0000    0    12.011    6.637580    6.305293   -6.296015
  71 C     6.0000    0    12.011   -6.637413   -6.303425    6.296887
  72 C     6.0000    0    12.011    4.626080    7.093799   -7.090472
  73 C     6.0000    0    12.011   -4.625904   -7.092910    7.090358
  74 C     6.0000    0    12.011  -13.576779   -3.636004   -3.641017
  75 C     6.0000    0    12.011   13.576629    3.634287    3.643461
  76 H     1.0000    0     1.008  -15.332854   -2.866051   -2.874757
  77 H     1.0000    0     1.008   15.332722    2.864643    2.876930
  78 C     6.0000    0    12.011  -13.581745   -5.494902   -5.498306
  79 C     6.0000    0    12.011   13.581556    5.492016    5.501915
  80 H     1.0000    0     1.008  -15.372875   -6.216649   -6.223064
  81 H     1.0000    0     1.008   15.372671    6.213139    6.227333
  82 C     6.0000    0    12.011  -11.298504   -6.410872   -6.408270
  83 C     6.0000    0    12.011   11.298299    6.407696    6.412122
  84 H     1.0000    0     1.008  -11.246846   -7.870915   -7.866371
  85 H     1.0000    0     1.008   11.246612    7.866928    7.871035
  86 C     6.0000    0    12.011   -9.017977   -5.441514   -5.434696
  87 C     6.0000    0    12.011    9.017794    5.439210    5.437631
  88 C     6.0000    0    12.011   -9.189373   -3.569801   -3.565283
  89 C     6.0000    0    12.011    9.189225    3.568584    3.567129
  90 H     1.0000    0     1.008   -7.476891   -2.756526   -2.748112
  91 H     1.0000    0     1.008    7.476760    2.756035    2.749204
  92 C     6.0000    0    12.011   -6.633962   -6.308194   -6.292667
  93 C     6.0000    0    12.011    6.633770    6.305966    6.295499
  94 C     6.0000    0    12.011   -4.622340   -7.097825   -7.085706
  95 C     6.0000    0    12.011    4.622137    7.095691    7.088414
  96 C     6.0000    0    12.011   -2.291697   -8.038925   -8.043048
  97 C     6.0000    0    12.011    2.291508    8.036836    8.045740
  98 C     6.0000    0    12.011    0.003411   -7.109187   -7.101718
  99 C     6.0000    0    12.011   -0.003617    7.108336    7.103236
 100 H     1.0000    0     1.008    0.003989   -5.661870   -5.633362
 101 H     1.0000    0     1.008   -0.004226    5.661825    5.634084
 102 C     6.0000    0    12.011    2.297807   -8.039369   -8.044382
 103 C     6.0000    0    12.011   -2.297994    8.038745    8.045723
 104 C     6.0000    0    12.011    2.281092   -9.909200   -9.938542
 105 C     6.0000    0    12.011   -2.281243    9.907550    9.940894
 106 H     1.0000    0     1.008    4.066383  -10.635206  -10.673082
 107 H     1.0000    0     1.008   -4.066520   10.633726   10.675300
 108 C     6.0000    0    12.011    0.001996  -10.828052  -10.869505
 109 C     6.0000    0    12.011   -0.002129   10.825153   10.873044
 110 H     1.0000    0     1.008    0.001407  -12.277812  -12.338221
 111 H     1.0000    0     1.008   -0.001513   12.274131   12.342533
 112 C     6.0000    0    12.011   -2.276382   -9.908819   -9.937169
 113 C     6.0000    0    12.011    2.276230    9.905702    9.940877
 114 H     1.0000    0     1.008   -4.062214  -10.634581  -10.670639
 115 H     1.0000    0     1.008    4.062078   10.630514   10.675249
 116 C     6.0000    0    12.011   13.581578   -3.634807   -3.640366
 117 C     6.0000    0    12.011  -13.581716    3.639254    3.636534
 118 H     1.0000    0     1.008   15.336964   -2.864338   -2.873030
 119 H     1.0000    0     1.008  -15.337080    2.869357    2.868576
 120 C     6.0000    0    12.011   13.588195   -5.492149   -5.499219
 121 C     6.0000    0    12.011  -13.588386    5.497837    5.494148
 122 H     1.0000    0     1.008   15.379974   -6.212135   -6.224138
 123 H     1.0000    0     1.008  -15.380189    6.219401    6.217436
 124 C     6.0000    0    12.011   11.305804   -6.408953   -6.410523
 125 C     6.0000    0    12.011  -11.306019    6.413774    6.406385
 126 H     1.0000    0     1.008   11.255573   -7.867866   -7.869806
 127 H     1.0000    0     1.008  -11.255832    7.873520    7.864838
 128 C     6.0000    0    12.011    9.024401   -5.441944   -5.436706
 129 C     6.0000    0    12.011   -9.024586    5.444732    5.434660
 130 C     6.0000    0    12.011    9.194126   -3.571623   -3.565750
 131 C     6.0000    0    12.011   -9.194260    3.573388    3.564729
 132 H     1.0000    0     1.008    7.480909   -2.760202   -2.748284
 133 H     1.0000    0     1.008   -7.481015    2.760362    2.748920
 134 C     6.0000    0    12.011   -6.641125    6.310883    6.294673
 135 C     6.0000    0    12.011   -4.629248    7.099254    7.088303
 136 C     6.0000    0    12.011    4.629051   -7.098687   -7.088102
 137 C     6.0000    0    12.011    6.640929   -6.309303   -6.295476
* core charge reduced due to ECP

--------------------------------
INTERNAL COORDINATES (ANGSTROEM)
--------------------------------
 Pd     0   0   0     0.000000000000     0.00000000     0.00000000
 Pd     1   0   0    12.107614131472     0.00000000     0.00000000
 N      2   1   0     2.029574430312    89.53259401     0.00000000
 N      1   2   3     2.029573034483    89.53474614   180.03641282
 N      1   2   3     2.029591890156    89.51041343     0.03648021
 N      2   1   4     2.029592596982    89.50914270     0.03689516
 N      2   1   4     2.029596884527    89.49215488   270.01337556
 N      1   2   3     2.029597051418    89.49037458    90.05947211
 N      1   2   3     2.029567072892    89.55186386   270.06104102
 N      2   1   9     2.029567390574    89.55337140   180.03697069
 C      3   2   1     1.341850742923   120.63102496   179.89913600
 C      4   1   2     1.341850824933   120.63196193   180.08772969
 H     11   3   2     1.092695439799   117.13628597     0.00000000
 H     12   4   1     1.092695877433   117.13642766   359.97700190
 C     11   3   2     1.390543597804   121.23176682   180.00339773
 C     12   4   1     1.390545366218   121.23151902   179.99525737
 H     15  11   3     1.091484864521   119.83687220   180.00708629
 H     16  12   4     1.091485054279   119.83685472   179.99275266
 C     15  11   3     1.388044236503   119.38035847     0.00000000
 C     16  12   4     1.388046969171   119.38042267     0.00000000
 H     19  15  11     1.092267908386   120.92029685   180.01319581
 H     20  16  12     1.092267946203   120.92036695   179.99144939
 C     19  15  11     1.408868987130   119.44605454     0.00000000
 C     20  16  12     1.408869433618   119.44600178     0.00000000
 C      3   2   1     1.336498097603   119.12889820   359.90161378
 C      4   1   2     1.336496356271   119.12785356     0.08267420
 H     25   3   2     1.092436806680   117.41446227   359.97377543
 H     26   4   1     1.092436673607   117.41428770     0.02659639
 C     23  19  15     1.417043666691   121.85010255   180.04987288
 C     24  20  16     1.417044328601   121.85072642   179.96032385
 C     29  23  19     1.218146875961   178.01900112   354.23501575
 C     30  24  20     1.218147533184   178.02046838     5.68131940
 C     31  29  23     1.423285488362   179.14018216   354.17127134
 C     32  30  24     1.423286118158   179.13955025     6.03300569
 C     33  31  29     1.408487589418   120.27432474    11.30076215
 C     34  32  30     1.408487364301   120.27425832   348.58028988
 H     35  33  31     1.091427032025   119.68912075   359.96126803
 H     36  34  32     1.091427008801   119.68910053     0.03431319
 C     35  33  31     1.390563581192   120.21307604   179.94350175
 C     36  34  32     1.390563088956   120.21308390   180.05109774
 H     39  35  33     1.092072812882   119.86934922   179.99583281
 H     40  36  34     1.092072941829   119.86931456   180.00485352
 C     39  35  33     1.390564393364   120.26288594   359.97583565
 C     40  36  34     1.390564678730   120.26292310     0.02360646
 H     43  39  35     1.091427505040   120.09691895   180.04126568
 H     44  40  36     1.091427506015   120.09688692   179.95891270
 C     43  39  35     1.408487626216   120.21344955     0.02463818
 C     44  40  36     1.408487835725   120.21349870   359.97634058
 C     33  31  29     1.401874405489   120.09211161   191.23374939
 C     34  32  30     1.401876015738   120.09220594   168.64232879
 H     49  33  31     1.091029304746   119.97792604     0.00000000
 H     50  34  32     1.091029022277   119.97791886     0.00000000
 C      5   1   2     1.341853494150   120.62293204   180.06621691
 C      6   2   1     1.341853209581   120.62282143   179.88943612
 H     53   5   1     1.092695350915   117.13623071     0.00000000
 H     54   6   2     1.092695741385   117.13619361     0.00000000
 C     53   5   1     1.390545886901   121.23191681   180.00210044
 C     54   6   2     1.390545362908   121.23196092   179.99888966
 H     57  53   5     1.091484758021   119.83683438   179.99233753
 H     58  54   6     1.091484912928   119.83683816   180.00610577
 C     57  53   5     1.388045357456   119.37995397     0.00000000
 C     58  54   6     1.388045524545   119.37998704     0.00000000
 H     61  57  53     1.092267641566   120.92110225   179.98926273
 H     62  58  54     1.092267834167   120.92100979   180.01536272
 C     61  57  53     1.408872222344   119.44599526     0.00000000
 C     62  58  54     1.408872166481   119.44610766     0.00000000
 C      5   1   2     1.336492535397   119.13693851     0.06727474
 C      6   2   1     1.336495280820   119.13708061   359.88754578
 H     67   5   1     1.092437075087   117.41468924     0.00000000
 H     68   6   2     1.092437140294   117.41464738     0.00000000
 C     65  61  57     1.417043518640   121.84683520   179.95374249
 C     66  62  58     1.417046162057   121.84644795   180.05501917
 C     71  65  61     1.218146661247   178.00359336     5.81023140
 C     72  66  62     1.218148236096   178.00356409   354.29401072
 C      7   2   1     1.341853693299   120.61697952   180.07722244
 C      8   1   2     1.341853212836   120.61619986   179.91438999
 H     75   7   2     1.092694535670   117.13559639     0.00000000
 H     76   8   1     1.092694506782   117.13554262     0.00000000
 C     75   7   2     1.390543079137   121.23269830   180.00390765
 C     76   8   1     1.390541791873   121.23285784   179.99543486
 H     79  75   7     1.091483889181   119.83697111   179.99347273
 H     80  76   8     1.091483859819   119.83697098   180.00672492
 C     79  75   7     1.388041172477   119.37907433     0.00000000
 C     80  76   8     1.388039763424   119.37906175     0.00000000
 H     83  79  75     1.092267648583   120.92147672   179.98736454
 H     84  80  76     1.092267690359   120.92144866   180.01707619
 C     83  79  75     1.408874460746   119.44663474     0.00000000
 C     84  80  76     1.408874278548   119.44662666     0.00000000
 C      7   2   1     1.336497644346   119.14269074     0.08051037
 C      8   1   2     1.336499127539   119.14351752   359.90926708
 H     89   7   2     1.092437273492   117.41507958     0.00000000
 H     90   8   1     1.092437101922   117.41528376     0.00000000
 C     87  83  79     1.417046895784   121.84255881   179.95506281
 C     88  84  80     1.417046585003   121.84223034   180.05605065
 C     93  87  83     1.218148638985   177.99394872     5.48965786
 C     94  88  84     1.218148265496   177.99418567   354.57218247
 C     95  93  87     1.423286523197   179.12749626     6.73603070
 C     96  94  88     1.423285799247   179.12579693   353.06199473
 C     97  95  93     1.401873809375   120.09579105   168.12832203
 C     98  96  94     1.401872909230   120.09601711   192.00022226
 H     99  97  95     1.091029377398   119.97836114     0.00000000
 H    100  98  96     1.091029596106   119.97843992     0.00000000
 C     99  97  95     1.401880960669   120.04403234   179.93753180
 C    100  98  96     1.401880993147   120.04397163   180.06860095
 C    103  99  97     1.408485298158   119.63383807     0.00000000
 C    104 100  98     1.408484937626   119.63392035     0.00000000
 H    105 103  99     1.091426665143   119.68927502   180.02713099
 H    106 104 100     1.091426689921   119.68927621   179.97309898
 C    105 103  99     1.390564406870   120.21266765     0.00000000
 C    106 104 100     1.390564396475   120.21264828     0.00000000
 H    109 105 103     1.092072807305   119.86918793   179.99788684
 H    110 106 104     1.092072925299   119.86917758   180.00168819
 C    109 105 103     1.390562834492   120.26295691   359.97695209
 C    110 106 104     1.390563270434   120.26290705     0.02406535
 H    113 109 105     1.091427943481   120.09666214   180.04194883
 H    114 110 106     1.091427911742   120.09666390   179.95663988
 C      9   1   2     1.341850730844   120.63795159   179.88237279
 C     10   2   1     1.341850830333   120.63820168   180.06811691
 H    117   9   1     1.092697270087   117.13697965     0.02423621
 H    118  10   2     1.092696741951   117.13703726   359.97460803
 C    117   9   1     1.390548352418   121.23078178   180.00749931
 C    118  10   2     1.390548923191   121.23068883   179.99340064
 H    121 117   9     1.091485619204   119.83678061   180.00574650
 H    122 118  10     1.091485568540   119.83671846   179.99251734
 C    121 117   9     1.388050386565   119.38134681     0.00000000
 C    122 118  10     1.388051149780   119.38141093     0.00000000
 H    125 121 117     1.092268256853   120.92012425   180.01521250
 H    126 122 118     1.092268556716   120.92011868   179.98958611
 C    125 121 117     1.408866759522   119.44547542     0.00000000
 C    126 122 118     1.408866819487   119.44536179     0.00000000
 C      9   1   2     1.336495015628   119.12212004   359.88794344
 C     10   2   1     1.336492931345   119.12189893     0.06178472
 H    131   9   1     1.092436329091   117.41347913   359.97252772
 H    132  10   2     1.092436080968   117.41348501     0.02583557
 C    130 126 122     1.417042156938   121.85499910   179.95860535
 C    135 130 126     1.218145479426   178.03353288     5.41933670
 C    103  99  97     1.423285322151   120.09017173   180.06696488
 C    137 103  99     1.218146621579   179.14107978   191.59567880

---------------------------
INTERNAL COORDINATES (A.U.)
---------------------------
 Pd     0   0   0     0.000000000000     0.00000000     0.00000000
 Pd     1   0   0    22.880074843676     0.00000000     0.00000000
 N      2   1   0     3.835339841698    89.53259401     0.00000000
 N      1   2   3     3.835337203965    89.53474614   180.03641282
 N      1   2   3     3.835372836022    89.51041343     0.03648021
 N      2   1   4     3.835374171730    89.50914270     0.03689516
 N      2   1   4     3.835382274017    89.49215488   270.01337556
 N      1   2   3     3.835382589394    89.49037458    90.05947211
 N      1   2   3     3.835325938191    89.55186386   270.06104102
 N      2   1   9     3.835326538523    89.55337140   180.03697069
 C      3   2   1     2.535730416724   120.63102496   179.89913600
 C      4   1   2     2.535730571699   120.63196193   180.08772969
 H     11   3   2     2.064895129005   117.13628597     0.00000000
 H     12   4   1     2.064895956013   117.13642766   359.97700190
 C     11   3   2     2.627746577127   121.23176682   180.00339773
 C     12   4   1     2.627749918946   121.23151902   179.99525737
 H     15  11   3     2.062607473266   119.83687220   180.00708629
 H     16  12   4     2.062607831856   119.83685472   179.99275266
 C     15  11   3     2.623023468758   119.38035847     0.00000000
 C     16  12   4     2.623028632752   119.38042267     0.00000000
 H     19  15  11     2.064087211720   120.92029685   180.01319581
 H     20  16  12     2.064087283185   120.92036695   179.99144939
 C     19  15  11     2.662376544251   119.44605454     0.00000000
 C     20  16  12     2.662377387991   119.44600178     0.00000000
 C      3   2   1     2.525615382976   119.12889820   359.90161378
 C      4   1   2     2.525612092335   119.12785356     0.08267420
 H     25   3   2     2.064406383240   117.41446227   359.97377543
 H     26   4   1     2.064406131770   117.41428770     0.02659639
 C     23  19  15     2.677824449853   121.85010255   180.04987288
 C     24  20  16     2.677825700682   121.85072642   179.96032385
 C     29  23  19     2.301963986458   178.01900112   354.23501575
 C     30  24  20     2.301965228429   178.02046838     5.68131940
 C     31  29  23     2.689619783389   179.14018216   354.17127134
 C     32  30  24     2.689620973531   179.13955025     6.03300569
 C     33  31  29     2.661655807027   120.27432474    11.30076215
 C     34  32  30     2.661655381618   120.27425832   348.58028988
 H     35  33  31     2.062498185686   119.68912075   359.96126803
 H     36  34  32     2.062498141800   119.68910053     0.03431319
 C     35  33  31     2.627784340258   120.21307604   179.94350175
 C     36  34  32     2.627783410067   120.21308390   180.05109774
 H     39  35  33     2.063718534647   119.86934922   179.99583281
 H     40  36  34     2.063718778323   119.86931456   180.00485352
 C     39  35  33     2.627785875040   120.26288594   359.97583565
 C     40  36  34     2.627786414304   120.26292310     0.02360646
 H     43  39  35     2.062499079555   120.09691895   180.04126568
 H     44  40  36     2.062499081396   120.09688692   179.95891270
 C     43  39  35     2.661655876565   120.21344955     0.02463818
 C     44  40  36     2.661656272479   120.21349870   359.97634058
 C     33  31  29     2.649158700529   120.09211161   191.23374939
 C     34  32  30     2.649161743458   120.09220594   168.64232879
 H     49  33  31     2.061746590052   119.97792604     0.00000000
 H     50  34  32     2.061746056264   119.97791886     0.00000000
 C      5   1   2     2.535735615789   120.62293204   180.06621691
 C      6   2   1     2.535735078031   120.62282143   179.88943612
 H     53   5   1     2.064894961038   117.13623071     0.00000000
 H     54   6   2     2.064895698920   117.13619361     0.00000000
 C     53   5   1     2.627750902894   121.23191681   180.00210044
 C     54   6   2     2.627749912689   121.23196092   179.99888966
 H     57  53   5     2.062607272009   119.83683438   179.99233753
 H     58  54   6     2.062607564742   119.83683816   180.00610577
 C     57  53   5     2.623025587053   119.37995397     0.00000000
 C     58  54   6     2.623025902806   119.37998704     0.00000000
 H     61  57  53     2.064086707504   120.92110225   179.98926273
 H     62  58  54     2.064087071468   120.92100979   180.01536272
 C     61  57  53     2.662382657919   119.44599526     0.00000000
 C     62  58  54     2.662382552354   119.44610766     0.00000000
 C      5   1   2     2.525604871931   119.13693851     0.06727474
 C      6   2   1     2.525610060028   119.13708061   359.88754578
 H     67   5   1     2.064406890457   117.41468924     0.00000000
 H     68   6   2     2.064407013679   117.41464738     0.00000000
 C     65  61  57     2.677824170077   121.84683520   179.95374249
 C     66  62  58     2.677829165412   121.84644795   180.05501917
 C     71  65  61     2.301963580707   178.00359336     5.81023140
 C     72  66  62     2.301966556741   178.00356409   354.29401072
 C      7   2   1     2.535735992126   120.61697952   180.07722244
 C      8   1   2     2.535735084183   120.61619986   179.91438999
 H     75   7   2     2.064893420448   117.13559639     0.00000000
 H     76   8   1     2.064893365858   117.13554262     0.00000000
 C     75   7   2     2.627745596988   121.23269830   180.00390765
 C     76   8   1     2.627743164412   121.23285784   179.99543486
 H     79  75   7     2.062605630140   119.83697111   179.99347273
 H     80  76   8     2.062605574654   119.83697098   180.00672492
 C     79  75   7     2.623017678589   119.37907433     0.00000000
 C     80  76   8     2.623015015864   119.37906175     0.00000000
 H     83  79  75     2.064086720765   120.92147672   179.98736454
 H     84  80  76     2.064086799709   120.92144866   180.01707619
 C     83  79  75     2.662386887886   119.44663474     0.00000000
 C     84  80  76     2.662386543582   119.44662666     0.00000000
 C      7   2   1     2.525614526445   119.14269074     0.08051037
 C      8   1   2     2.525617329274   119.14351752   359.90926708
 H     89   7   2     2.064407265388   117.41507958     0.00000000
 H     90   8   1     2.064406941166   117.41528376     0.00000000
 C     87  83  79     2.677830551955   121.84255881   179.95506281
 C     88  84  80     2.677829964665   121.84223034   180.05605065
 C     93  87  83     2.301967318090   177.99394872     5.48965786
 C     94  88  84     2.301966612298   177.99418567   354.57218247
 C     95  93  87     2.689621738943   179.12749626     6.73603070
 C     96  94  88     2.689620370877   179.12579693   353.06199473
 C     97  95  93     2.649157574035   120.09579105   168.12832203
 C     98  96  94     2.649155873008   120.09601711   192.00022226
 H     99  97  95     2.061746727346   119.97836114     0.00000000
 H    100  98  96     2.061747140643   119.97843992     0.00000000
 C     99  97  95     2.649171088024   120.04403234   179.93753180
 C    100  98  96     2.649171149398   120.04397163   180.06860095
 C    103  99  97     2.661651477173   119.63383807     0.00000000
 C    104 100  98     2.661650795867   119.63392035     0.00000000
 H    105 103  99     2.062497492380   119.68927502   180.02713099
 H    106 104 100     2.062497539203   119.68927621   179.97309898
 C    105 103  99     2.627785900564   120.21266765     0.00000000
 C    106 104 100     2.627785880919   120.21264828     0.00000000
 H    109 105 103     2.063718524109   119.86918793   179.99788684
 H    110 106 104     2.063718747085   119.86917758   180.00168819
 C    109 105 103     2.627782929200   120.26295691   359.97695209
 C    110 106 104     2.627783753009   120.26290705     0.02406535
 H    113 109 105     2.062499908088   120.09666214   180.04194883
 H    114 110 106     2.062499848109   120.09666390   179.95663988
 C      9   1   2     2.535730393897   120.63795159   179.88237279
 C     10   2   1     2.535730581903   120.63820168   180.06811691
 H    117   9   1     2.064898587749   117.13697965     0.02423621
 H    118  10   2     2.064897589716   117.13703726   359.97460803
 C    117   9   1     2.627755562046   121.23078178   180.00749931
 C    118  10   2     2.627756640650   121.23068883   179.99340064
 H    121 117   9     2.062608899408   119.83678061   180.00574650
 H    122 118  10     2.062608803667   119.83671846   179.99251734
 C    121 117   9     2.623035090692   119.38134681     0.00000000
 C    122 118  10     2.623036532959   119.38141093     0.00000000
 H    125 121 117     2.064087870227   120.92012425   180.01521250
 H    126 122 118     2.064088436887   120.92011868   179.98958611
 C    125 121 117     2.662372334681   119.44547542     0.00000000
 C    126 122 118     2.662372447999   119.44536179     0.00000000
 C      9   1   2     2.525609558887   119.12212004   359.88794344
 C     10   2   1     2.525605620163   119.12189893     0.06178472
 H    131   9   1     2.064405480729   117.41347913   359.97252772
 H    132  10   2     2.064405011844   117.41348501     0.02583557
 C    130 126 122     2.677821596834   121.85499910   179.95860535
 C    135 130 126     2.301961347390   178.03353288     5.41933670
 C    103  99  97     2.689619469296   120.09017173   180.06696488
 C    137 103  99     2.301963505745   179.14107978   191.59567880

---------------------
BASIS SET INFORMATION
---------------------
There are 4 groups of distinct atoms

 Group   1 Type Pd  : 7s6p5d1f contracted to 5s3p2d1f pattern {31111/411/41/1}
 Group   2 Type N   : 7s4p1d contracted to 3s2p1d pattern {511/31/1}
 Group   3 Type C   : 7s4p1d contracted to 3s2p1d pattern {511/31/1}
 Group   4 Type H   : 4s1p contracted to 2s1p pattern {31/1}

Atom   0Pd   basis set group =>   1
Atom   1Pd   basis set group =>   1
Atom   2N    basis set group =>   2
Atom   3N    basis set group =>   2
Atom   4N    basis set group =>   2
Atom   5N    basis set group =>   2
Atom   6N    basis set group =>   2
Atom   7N    basis set group =>   2
Atom   8N    basis set group =>   2
Atom   9N    basis set group =>   2
Atom  10C    basis set group =>   3
Atom  11C    basis set group =>   3
Atom  12H    basis set group =>   4
Atom  13H    basis set group =>   4
Atom  14C    basis set group =>   3
Atom  15C    basis set group =>   3
Atom  16H    basis set group =>   4
Atom  17H    basis set group =>   4
Atom  18C    basis set group =>   3
Atom  19C    basis set group =>   3
Atom  20H    basis set group =>   4
Atom  21H    basis set group =>   4
Atom  22C    basis set group =>   3
Atom  23C    basis set group =>   3
Atom  24C    basis set group =>   3
Atom  25C    basis set group =>   3
Atom  26H    basis set group =>   4
Atom  27H    basis set group =>   4
Atom  28C    basis set group =>   3
Atom  29C    basis set group =>   3
Atom  30C    basis set group =>   3
Atom  31C    basis set group =>   3
Atom  32C    basis set group =>   3
Atom  33C    basis set group =>   3
Atom  34C    basis set group =>   3
Atom  35C    basis set group =>   3
Atom  36H    basis set group =>   4
Atom  37H    basis set group =>   4
Atom  38C    basis set group =>   3
Atom  39C    basis set group =>   3
Atom  40H    basis set group =>   4
Atom  41H    basis set group =>   4
Atom  42C    basis set group =>   3
Atom  43C    basis set group =>   3
Atom  44H    basis set group =>   4
Atom  45H    basis set group =>   4
Atom  46C    basis set group =>   3
Atom  47C    basis set group =>   3
Atom  48C    basis set group =>   3
Atom  49C    basis set group =>   3
Atom  50H    basis set group =>   4
Atom  51H    basis set group =>   4
Atom  52C    basis set group =>   3
Atom  53C    basis set group =>   3
Atom  54H    basis set group =>   4
Atom  55H    basis set group =>   4
Atom  56C    basis set group =>   3
Atom  57C    basis set group =>   3
Atom  58H    basis set group =>   4
Atom  59H    basis set group =>   4
Atom  60C    basis set group =>   3
Atom  61C    basis set group =>   3
Atom  62H    basis set group =>   4
Atom  63H    basis set group =>   4
Atom  64C    basis set group =>   3
Atom  65C    basis set group =>   3
Atom  66C    basis set group =>   3
Atom  67C    basis set group =>   3
Atom  68H    basis set group =>   4
Atom  69H    basis set group =>   4
Atom  70C    basis set group =>   3
Atom  71C    basis set group =>   3
Atom  72C    basis set group =>   3
Atom  73C    basis set group =>   3
Atom  74C    basis set group =>   3
Atom  75C    basis set group =>   3
Atom  76H    basis set group =>   4
Atom  77H    basis set group =>   4
Atom  78C    basis set group =>   3
Atom  79C    basis set group =>   3
Atom  80H    basis set group =>   4
Atom  81H    basis set group =>   4
Atom  82C    basis set group =>   3
Atom  83C    basis set group =>   3
Atom  84H    basis set group =>   4
Atom  85H    basis set group =>   4
Atom  86C    basis set group =>   3
Atom  87C    basis set group =>   3
Atom  88C    basis set group =>   3
Atom  89C    basis set group =>   3
Atom  90H    basis set group =>   4
Atom  91H    basis set group =>   4
Atom  92C    basis set group =>   3
Atom  93C    basis set group =>   3
Atom  94C    basis set group =>   3
Atom  95C    basis set group =>   3
Atom  96C    basis set group =>   3
Atom  97C    basis set group =>   3
Atom  98C    basis set group =>   3
Atom  99C    basis set group =>   3
Atom 100H    basis set group =>   4
Atom 101H    basis set group =>   4
Atom 102C    basis set group =>   3
Atom 103C    basis set group =>   3
Atom 104C    basis set group =>   3
Atom 105C    basis set group =>   3
Atom 106H    basis set group =>   4
Atom 107H    basis set group =>   4
Atom 108C    basis set group =>   3
Atom 109C    basis set group =>   3
Atom 110H    basis set group =>   4
Atom 111H    basis set group =>   4
Atom 112C    basis set group =>   3
Atom 113C    basis set group =>   3
Atom 114H    basis set group =>   4
Atom 115H    basis set group =>   4
Atom 116C    basis set group =>   3
Atom 117C    basis set group =>   3
Atom 118H    basis set group =>   4
Atom 119H    basis set group =>   4
Atom 120C    basis set group =>   3
Atom 121C    basis set group =>   3
Atom 122H    basis set group =>   4
Atom 123H    basis set group =>   4
Atom 124C    basis set group =>   3
Atom 125C    basis set group =>   3
Atom 126H    basis set group =>   4
Atom 127H    basis set group =>   4
Atom 128C    basis set group =>   3
Atom 129C    basis set group =>   3
Atom 130C    basis set group =>   3
Atom 131C    basis set group =>   3
Atom 132H    basis set group =>   4
Atom 133H    basis set group =>   4
Atom 134C    basis set group =>   3
Atom 135C    basis set group =>   3
Atom 136C    basis set group =>   3
Atom 137C    basis set group =>   3
-------------------------------
AUXILIARY BASIS SET INFORMATION
-------------------------------
There are 4 groups of distinct atoms

 Group   1 Type Pd  : 11s5p5d3f3g contracted to 8s5p5d2f3g pattern {41111111/11111/11111/21/111}
 Group   2 Type N   : 12s5p4d2f1g contracted to 6s4p3d1f1g pattern {711111/2111/211/2/1}
 Group   3 Type C   : 12s5p4d2f1g contracted to 6s4p3d1f1g pattern {711111/2111/211/2/1}
 Group   4 Type H   : 5s2p1d contracted to 3s1p1d pattern {311/2/1}

Atom   0Pd   basis set group =>   1
Atom   1Pd   basis set group =>   1
Atom   2N    basis set group =>   2
Atom   3N    basis set group =>   2
Atom   4N    basis set group =>   2
Atom   5N    basis set group =>   2
Atom   6N    basis set group =>   2
Atom   7N    basis set group =>   2
Atom   8N    basis set group =>   2
Atom   9N    basis set group =>   2
Atom  10C    basis set group =>   3
Atom  11C    basis set group =>   3
Atom  12H    basis set group =>   4
Atom  13H    basis set group =>   4
Atom  14C    basis set group =>   3
Atom  15C    basis set group =>   3
Atom  16H    basis set group =>   4
Atom  17H    basis set group =>   4
Atom  18C    basis set group =>   3
Atom  19C    basis set group =>   3
Atom  20H    basis set group =>   4
Atom  21H    basis set group =>   4
Atom  22C    basis set group =>   3
Atom  23C    basis set group =>   3
Atom  24C    basis set group =>   3
Atom  25C    basis set group =>   3
Atom  26H    basis set group =>   4
Atom  27H    basis set group =>   4
Atom  28C    basis set group =>   3
Atom  29C    basis set group =>   3
Atom  30C    basis set group =>   3
Atom  31C    basis set group =>   3
Atom  32C    basis set group =>   3
Atom  33C    basis set group =>   3
Atom  34C    basis set group =>   3
Atom  35C    basis set group =>   3
Atom  36H    basis set group =>   4
Atom  37H    basis set group =>   4
Atom  38C    basis set group =>   3
Atom  39C    basis set group =>   3
Atom  40H    basis set group =>   4
Atom  41H    basis set group =>   4
Atom  42C    basis set group =>   3
Atom  43C    basis set group =>   3
Atom  44H    basis set group =>   4
Atom  45H    basis set group =>   4
Atom  46C    basis set group =>   3
Atom  47C    basis set group =>   3
Atom  48C    basis set group =>   3
Atom  49C    basis set group =>   3
Atom  50H    basis set group =>   4
Atom  51H    basis set group =>   4
Atom  52C    basis set group =>   3
Atom  53C    basis set group =>   3
Atom  54H    basis set group =>   4
Atom  55H    basis set group =>   4
Atom  56C    basis set group =>   3
Atom  57C    basis set group =>   3
Atom  58H    basis set group =>   4
Atom  59H    basis set group =>   4
Atom  60C    basis set group =>   3
Atom  61C    basis set group =>   3
Atom  62H    basis set group =>   4
Atom  63H    basis set group =>   4
Atom  64C    basis set group =>   3
Atom  65C    basis set group =>   3
Atom  66C    basis set group =>   3
Atom  67C    basis set group =>   3
Atom  68H    basis set group =>   4
Atom  69H    basis set group =>   4
Atom  70C    basis set group =>   3
Atom  71C    basis set group =>   3
Atom  72C    basis set group =>   3
Atom  73C    basis set group =>   3
Atom  74C    basis set group =>   3
Atom  75C    basis set group =>   3
Atom  76H    basis set group =>   4
Atom  77H    basis set group =>   4
Atom  78C    basis set group =>   3
Atom  79C    basis set group =>   3
Atom  80H    basis set group =>   4
Atom  81H    basis set group =>   4
Atom  82C    basis set group =>   3
Atom  83C    basis set group =>   3
Atom  84H    basis set group =>   4
Atom  85H    basis set group =>   4
Atom  86C    basis set group =>   3
Atom  87C    basis set group =>   3
Atom  88C    basis set group =>   3
Atom  89C    basis set group =>   3
Atom  90H    basis set group =>   4
Atom  91H    basis set group =>   4
Atom  92C    basis set group =>   3
Atom  93C    basis set group =>   3
Atom  94C    basis set group =>   3
Atom  95C    basis set group =>   3
Atom  96C    basis set group =>   3
Atom  97C    basis set group =>   3
Atom  98C    basis set group =>   3
Atom  99C    basis set group =>   3
Atom 100H    basis set group =>   4
Atom 101H    basis set group =>   4
Atom 102C    basis set group =>   3
Atom 103C    basis set group =>   3
Atom 104C    basis set group =>   3
Atom 105C    basis set group =>   3
Atom 106H    basis set group =>   4
Atom 107H    basis set group =>   4
Atom 108C    basis set group =>   3
Atom 109C    basis set group =>   3
Atom 110H    basis set group =>   4
Atom 111H    basis set group =>   4
Atom 112C    basis set group =>   3
Atom 113C    basis set group =>   3
Atom 114H    basis set group =>   4
Atom 115H    basis set group =>   4
Atom 116C    basis set group =>   3
Atom 117C    basis set group =>   3
Atom 118H    basis set group =>   4
Atom 119H    basis set group =>   4
Atom 120C    basis set group =>   3
Atom 121C    basis set group =>   3
Atom 122H    basis set group =>   4
Atom 123H    basis set group =>   4
Atom 124C    basis set group =>   3
Atom 125C    basis set group =>   3
Atom 126H    basis set group =>   4
Atom 127H    basis set group =>   4
Atom 128C    basis set group =>   3
Atom 129C    basis set group =>   3
Atom 130C    basis set group =>   3
Atom 131C    basis set group =>   3
Atom 132H    basis set group =>   4
Atom 133H    basis set group =>   4
Atom 134C    basis set group =>   3
Atom 135C    basis set group =>   3
Atom 136C    basis set group =>   3
Atom 137C    basis set group =>   3
-------------------------
ECP PARAMETER INFORMATION
-------------------------

 Group 1, Type Pd ECP Def2-ECP (replacing 28 core electrons, lmax=3)

Atom   0Pd   ECP group =>   1
Atom   1Pd   ECP group =>   1



           ************************************************************
           *        Program running with 8 parallel MPI-processes     *
           *              working on a common directory               *
           ************************************************************
------------------------------------------------------------------------------
                           ORCA GTO INTEGRAL CALCULATION
                           -- RI-GTO INTEGRALS CHOSEN --
------------------------------------------------------------------------------

                         BASIS SET STATISTICS AND STARTUP INFO

Gaussian basis set:
 # of primitive gaussian shells          ... 1334
 # of primitive gaussian functions       ... 2562
 # of contracted shells                  ...  694
 # of contracted basis functions         ... 1534
 Highest angular momentum                ...    3
 Maximum contraction depth               ...    5
Auxiliary gaussian basis set:
 # of primitive gaussian shells          ... 2550
 # of primitive gaussian functions       ... 7126
 # of contracted shells                  ... 1606
 # of contracted aux-basis functions     ... 5018
 Highest angular momentum                ...    4
 Maximum contraction depth               ...    7
Ratio of auxiliary to basis functions    ...  3.27
Integral package used                  ... LIBINT
 One Electron integrals                  
   ECP integrals                         ... done
 Ordering auxiliary basis shells         ... done
 Integral threshhold             Thresh  ...  1.000e-10
 Primitive cut-off               TCut    ...  1.000e-11
 Pre-screening matrix                    ... done
 Shell pair data                         ... 
 Ordering of the shell pairs             ... done (   0.015 sec) 74285 of 241165 pairs
 Determination of significant pairs      ... done (   0.000 sec)
 Creation of shell pair data             ... done (   0.008 sec)
 Storage of shell pair data              ... done (   0.064 sec)
 Shell pair data done in (   0.087 sec)
 Computing two index integrals           ... done
 Cholesky decomposition of the V-matrix  ... done


Timings:
 Total evaluation time                   ...   7.184 sec (  0.120 min)
 One electron matrix time                ...   4.024 sec (  0.067 min) = 56.0%
 Schwartz matrix evaluation time         ...   1.165 sec (  0.019 min) = 16.2%
 Two index repulsion integral time       ...   0.635 sec (  0.011 min) =  8.8%
 Cholesky decomposition of V             ...   1.255 sec (  0.021 min) = 17.5%
 Three index repulsion integral time     ...   0.000 sec (  0.000 min) =  0.0%



           ************************************************************
           *        Program running with 8 parallel MPI-processes     *
           *              working on a common directory               *
           ************************************************************
-------------------------------------------------------------------------------
                                 ORCA SCF
-------------------------------------------------------------------------------

------------
SCF SETTINGS
------------
Hamiltonian:
 Density Functional     Method          .... DFT(GTOs)
 Exchange Functional    Exchange        .... PBE
   PBE kappa parameter   XKappa         ....  0.804000
   PBE mue parameter    XMuePBE         ....  0.219520
 Correlation Functional Correlation     .... PBE
   PBE beta parameter  CBetaPBE         ....  0.066725
 LDA part of GGA corr.  LDAOpt          .... PW91-LDA
 Gradients option       PostSCFGGA      .... off
 Hybrid DFT is turned on
   Fraction HF Exchange ScalHFX         ....  0.250000
   Scaling of DF-GGA-X  ScalDFX         ....  0.750000
   Scaling of DF-GGA-C  ScalDFC         ....  1.000000
   Scaling of DF-LDA-C  ScalLDAC        ....  1.000000
   Perturbative correction              ....  0.000000
   Density functional embedding theory  .... OFF
   NL short-range parameter             ....  6.900000
 RI-approximation to the Coulomb term is turned on
   Number of auxiliary basis functions  .... 5018
   RIJ-COSX (HFX calculated with COS-X)).... on


General Settings:
 Integral files         IntName         .... cage_sp
 Hartree-Fock type      HFTyp           .... RHF
 Total Charge           Charge          ....    4
 Multiplicity           Mult            ....    1
 Number of Electrons    NEL             ....  616
 Basis Dimension        Dim             .... 1534
 Nuclear Repulsion      ENuc            ....  14645.4071285422 Eh

Convergence Acceleration:
 DIIS                   CNVDIIS         .... on
   Start iteration      DIISMaxIt       ....    12
   Startup error        DIISStart       ....  0.200000
   # of expansion vecs  DIISMaxEq       ....     5
   Bias factor          DIISBfac        ....   1.050
   Max. coefficient     DIISMaxC        ....  10.000
 Newton-Raphson         CNVNR           .... off
 SOSCF                  CNVSOSCF        .... off
 Level Shifting         CNVShift        .... on
   Level shift para.    LevelShift      ....    0.2500
   Turn off err/grad.   ShiftErr        ....    0.0010
 Zerner damping         CNVZerner       .... off
 Static damping         CNVDamp         .... on
   Fraction old density DampFac         ....    0.7000
   Max. Damping (<1)    DampMax         ....    0.9800
   Min. Damping (>=0)   DampMin         ....    0.0000
   Turn off err/grad.   DampErr         ....    0.1000
 Fernandez-Rico         CNVRico         .... off

SCF Procedure:
 Maximum # iterations   MaxIter         ....   125
 SCF integral mode      SCFMode         .... Direct
   Integral package                     .... LIBINT
 Reset frequency        DirectResetFreq ....    20
 Integral Threshold     Thresh          ....  1.000e-10 Eh
 Primitive CutOff       TCut            ....  1.000e-11 Eh

Convergence Tolerance:
 Convergence Check Mode ConvCheckMode   .... Total+1el-Energy
 Convergence forced     ConvForced      .... 0
 Energy Change          TolE            ....  1.000e-06 Eh
 1-El. energy change                    ....  1.000e-03 Eh
 DIIS Error             TolErr          ....  1.000e-06


Diagonalization of the overlap matrix:
Smallest eigenvalue                        ... 2.803e-04
Time for diagonalization                   ...    0.479 sec
Threshold for overlap eigenvalues          ... 1.000e-08
Number of eigenvalues below threshold      ... 0
Time for construction of square roots      ...    0.255 sec
Total time needed                          ...    0.740 sec

-------------------
DFT GRID GENERATION
-------------------

General Integration Accuracy     IntAcc      ...  4.340
Radial Grid Type                 RadialGrid  ... Gauss-Chebyshev
Angular Grid (max. acc.)         AngularGrid ... Lebedev-110
Angular grid pruning method      GridPruning ... 3 (G Style)
Weight generation scheme         WeightScheme... Becke
Basis function cutoff            BFCut       ...    1.0000e-10
Integration weight cutoff        WCut        ...    1.0000e-14
Grids for H and He will be reduced by one unit

# of grid points (after initial pruning)     ... 190696 (   0.0 sec)
# of grid points (after weights+screening)   ... 165108 (   2.2 sec)
nearest neighbour list constructed           ...    0.0 sec
Grid point re-assignment to atoms done       ...    0.0 sec
Grid point division into batches done        ...    0.1 sec
Reduced shell lists constructed in    0.5 sec

Total number of grid points                  ...   165108
Total number of batches                      ...     2665
Average number of points per batch           ...       61
Average number of grid points per atom       ...     1196
Average number of shells per batch           ...   141.68 (20.41%)
Average number of basis functions per batch  ...   295.21 (19.24%)
Average number of large shells per batch     ...    83.79 (59.14%)
Average number of large basis fcns per batch ...   178.99 (60.63%)
Maximum spatial batch extension              ...  20.10, 17.16, 20.40 au
Average spatial batch extension              ...   0.30,  0.31,  0.31 au

Time for grid setup =    4.710 sec

------------------------------
INITIAL GUESS: MODEL POTENTIAL
------------------------------
Loading Hartree-Fock densities                     ... done
  calling /usr/local/orca_4_1_0_linux_x86-64/orca cage_sp_atom46.inp > cage_sp_atom46.out in order to generate an atomic fitting density for atom 0 (Pd with ECP) on-the-fly... 
    atom 0 (Pd), assumed electronic state with S=3: 1s2 2s2 2p6 3s2 3p6 4s2 3d10 4p6 5s2 4d8           ... done
Calculating cut-offs                               ... done
Setting up the integral package                    ... done
Initializing the effective Hamiltonian             ... done
Starting the Coulomb interaction                   ... done (   2.0 sec)
Reading the grid                                   ... done
Mapping shells                                     ... done
Starting the XC term evaluation                    ... done (   0.8 sec)
  promolecular density results
     # of electrons  =    675.811213416
     EX              =   -752.652592192
     EC              =    -24.398400399
     EX+EC           =   -777.050992591
Transforming the Hamiltonian                       ... done (   0.2 sec)
Diagonalizing the Hamiltonian                      ... done (   0.4 sec)
Back transforming the eigenvectors                 ... done (   0.1 sec)
Now organizing SCF variables                       ... done
                      ------------------
                      INITIAL GUESS DONE (  20.1 sec)
                      ------------------
--------------------
COSX GRID GENERATION
--------------------

General Integration Accuracy     IntAcc      ...  3.340
Radial Grid Type                 RadialGrid  ... Gauss-Chebyshev
Angular Grid (max. acc.)         AngularGrid ... Lebedev-50
Angular grid pruning method      GridPruning ... 3 (G Style)
Weight generation scheme         WeightScheme... Becke
Basis function cutoff            BFCut       ...    1.0000e-10
Integration weight cutoff        WCut        ...    1.0000e-14
Grids for H and He will be reduced by one unit

# of grid points (after initial pruning)     ...  68748 (   0.0 sec)
# of grid points (after weights+screening)   ...  60386 (   0.9 sec)
nearest neighbour list constructed           ...    0.0 sec
Grid point re-assignment to atoms done       ...    0.0 sec
Grid point division into batches done        ...    0.0 sec
Reduced shell lists constructed in    0.2 sec

Total number of grid points                  ...    60386
Total number of batches                      ...     1002
Average number of points per batch           ...       60
Average number of grid points per atom       ...      438
Average number of shells per batch           ...   153.56 (22.13%)
Average number of basis functions per batch  ...   320.08 (20.87%)
Average number of large shells per batch     ...    91.69 (59.71%)
Average number of large basis fcns per batch ...   197.50 (61.70%)
Maximum spatial batch extension              ...  17.91, 15.21, 16.65 au
Average spatial batch extension              ...   0.37,  0.41,  0.42 au

Overlap Fitting                  UseSFitting ... on
Constructing numerical overlap ... done (      0.1 sec)
Inverting numerical overlap    ... done (      0.1 sec)
Obtaining analytic overlap     ... done (      0.0 sec)
Final contraction and storage  ... done (      0.2 sec)


General Integration Accuracy     IntAcc      ...  3.670
Radial Grid Type                 RadialGrid  ... Gauss-Chebyshev
Angular Grid (max. acc.)         AngularGrid ... Lebedev-50
Angular grid pruning method      GridPruning ... 3 (G Style)
Weight generation scheme         WeightScheme... Becke
Basis function cutoff            BFCut       ...    1.0000e-10
Integration weight cutoff        WCut        ...    1.0000e-14
Grids for H and He will be reduced by one unit

# of grid points (after initial pruning)     ...  85892 (   0.0 sec)
# of grid points (after weights+screening)   ...  75177 (   1.1 sec)
nearest neighbour list constructed           ...    0.0 sec
Grid point re-assignment to atoms done       ...    0.0 sec
Grid point division into batches done        ...    0.0 sec
Reduced shell lists constructed in    0.2 sec

Total number of grid points                  ...    75177
Total number of batches                      ...     1236
Average number of points per batch           ...       60
Average number of grid points per atom       ...      545
Average number of shells per batch           ...   148.88 (21.45%)
Average number of basis functions per batch  ...   310.56 (20.25%)
Average number of large shells per batch     ...    88.03 (59.12%)
Average number of large basis fcns per batch ...   189.51 (61.02%)
Maximum spatial batch extension              ...  18.42, 16.84, 17.59 au
Average spatial batch extension              ...   0.32,  0.35,  0.36 au

Overlap Fitting                  UseSFitting ... on
Constructing numerical overlap ... done (      0.2 sec)
Inverting numerical overlap    ... done (      0.1 sec)
Obtaining analytic overlap     ... done (      0.0 sec)
Final contraction and storage  ... done (      0.2 sec)


General Integration Accuracy     IntAcc      ...  4.010
Radial Grid Type                 RadialGrid  ... Gauss-Chebyshev
Angular Grid (max. acc.)         AngularGrid ... Lebedev-110
Angular grid pruning method      GridPruning ... 3 (G Style)
Weight generation scheme         WeightScheme... Becke
Basis function cutoff            BFCut       ...    1.0000e-10
Integration weight cutoff        WCut        ...    1.0000e-14
Grids for H and He will be reduced by one unit

# of grid points (after initial pruning)     ... 167072 (   0.0 sec)
# of grid points (after weights+screening)   ... 145433 (   2.1 sec)
nearest neighbour list constructed           ...    0.0 sec
Grid point re-assignment to atoms done       ...    0.0 sec
Grid point division into batches done        ...    0.1 sec
Reduced shell lists constructed in    0.5 sec

Total number of grid points                  ...   145433
Total number of batches                      ...     2337
Average number of points per batch           ...       62
Average number of grid points per atom       ...     1054
Average number of shells per batch           ...   143.63 (20.70%)
Average number of basis functions per batch  ...   299.59 (19.53%)
Average number of large shells per batch     ...    84.58 (58.89%)
Average number of large basis fcns per batch ...   180.62 (60.29%)
Maximum spatial batch extension              ...  15.45, 16.63, 16.63 au
Average spatial batch extension              ...   0.28,  0.31,  0.31 au

Overlap Fitting                  UseSFitting ... on
Constructing numerical overlap ... done (      0.3 sec)
Inverting numerical overlap    ... done (      0.1 sec)
Obtaining analytic overlap     ... done (      0.0 sec)
Final contraction and storage  ... done (      0.2 sec)

Time for X-Grid setup             =    6.959 sec
--------------
SCF ITERATIONS
--------------
ITER       Energy         Delta-E        Max-DP      RMS-DP      [F,P]     Damp
               ***  Starting incremental Fock matrix formation  ***
  0  -3762.0905927521   0.000000000000 0.06571578  0.00073571  0.4601611 0.7000
  1  -3762.5432303083  -0.452637556187 0.04331059  0.00051927  0.3178332 0.7000
  2  -3762.7688639975  -0.225633689230 0.02671896  0.00030053  0.2183783 0.7000
                               ***Turning on DIIS***
  3  -3762.8956853110  -0.126821313559 0.01678074  0.00017333  0.1505294 0.7000
  4  -3762.9804908378  -0.084805526711 0.00985379  0.00010162  0.1042213 0.7000
  5  -3763.0398341354  -0.059343297689 0.02364428  0.00023731  0.0730292 0.0000
  6  -3763.1769934262  -0.137159290767 0.00196006  0.00002495  0.0011402 0.0000
  7  -3763.1771097470  -0.000116320753 0.00152722  0.00000991  0.0003499 0.0000
               *** Restarting incremental Fock matrix formation ***
                                   *** Resetting DIIS ***
  8  -3763.1770510492   0.000058697749 0.00081773  0.00000883  0.0003360 0.0000
  9  -3763.1770341362   0.000016913056 0.00050517  0.00000528  0.0006478 0.0000
 10  -3763.1770574805  -0.000023344302 0.00010323  0.00000092  0.0000740 0.0000
 11  -3763.1770571276   0.000000352902 0.00008704  0.00000041  0.0000516 0.0000
                 **** Energy Check signals convergence ****

               *****************************************************
               *                     SUCCESS                       *
               *           SCF CONVERGED AFTER  12 CYCLES          *
               *****************************************************

Setting up the final grid:

General Integration Accuracy     IntAcc      ...  4.670
Radial Grid Type                 RadialGrid  ... Gauss-Chebyshev
Angular Grid (max. acc.)         AngularGrid ... Lebedev-302
Angular grid pruning method      GridPruning ... 3 (G Style)
Weight generation scheme         WeightScheme... Becke
Basis function cutoff            BFCut       ...    1.0000e-10
[...]
freq.     131.38  E(vib)   ...       0.42 
freq.     136.03  E(vib)   ...       0.42 
freq.     136.81  E(vib)   ...       0.42 
freq.     138.83  E(vib)   ...       0.42 
freq.     148.10  E(vib)   ...       0.41 
freq.     149.18  E(vib)   ...       0.40 
freq.     149.25  E(vib)   ...       0.40 
freq.     150.04  E(vib)   ...       0.40 
freq.     150.09  E(vib)   ...       0.40 
freq.     151.27  E(vib)   ...       0.40 
freq.     153.31  E(vib)   ...       0.40 
freq.     189.47  E(vib)   ...       0.36 
freq.     189.57  E(vib)   ...       0.36 
freq.     189.60  E(vib)   ...       0.36 
freq.     190.10  E(vib)   ...       0.36 
freq.     190.16  E(vib)   ...       0.36 
freq.     197.41  E(vib)   ...       0.35 
freq.     197.60  E(vib)   ...       0.35 
freq.     199.83  E(vib)   ...       0.35 
freq.     201.65  E(vib)   ...       0.35 
freq.     201.73  E(vib)   ...       0.35 
freq.     211.54  E(vib)   ...       0.34 
freq.     233.12  E(vib)   ...       0.32 
freq.     236.27  E(vib)   ...       0.32 
freq.     236.36  E(vib)   ...       0.32 
freq.     239.95  E(vib)   ...       0.31 
freq.     273.27  E(vib)   ...       0.29 
freq.     274.42  E(vib)   ...       0.28 
freq.     274.80  E(vib)   ...       0.28 
freq.     274.98  E(vib)   ...       0.28 
freq.     279.55  E(vib)   ...       0.28 
freq.     283.34  E(vib)   ...       0.28 
freq.     283.38  E(vib)   ...       0.28 
freq.     284.22  E(vib)   ...       0.28 
freq.     287.44  E(vib)   ...       0.27 
freq.     288.52  E(vib)   ...       0.27 
freq.     288.86  E(vib)   ...       0.27 
freq.     292.11  E(vib)   ...       0.27 
freq.     300.93  E(vib)   ...       0.26 
freq.     307.81  E(vib)   ...       0.26 
freq.     308.07  E(vib)   ...       0.26 
freq.     311.24  E(vib)   ...       0.25 
freq.     311.71  E(vib)   ...       0.25 
freq.     311.95  E(vib)   ...       0.25 
freq.     318.81  E(vib)   ...       0.25 
freq.     401.29  E(vib)   ...       0.19 
freq.     402.68  E(vib)   ...       0.19 
freq.     403.20  E(vib)   ...       0.19 
freq.     403.23  E(vib)   ...       0.19 
freq.     403.94  E(vib)   ...       0.19 
freq.     403.95  E(vib)   ...       0.19 
freq.     404.49  E(vib)   ...       0.19 
freq.     404.70  E(vib)   ...       0.19 
freq.     426.42  E(vib)   ...       0.18 
freq.     429.42  E(vib)   ...       0.18 
freq.     444.21  E(vib)   ...       0.17 
freq.     447.72  E(vib)   ...       0.17 
freq.     447.73  E(vib)   ...       0.17 
freq.     449.60  E(vib)   ...       0.17 
freq.     453.79  E(vib)   ...       0.16 
freq.     453.81  E(vib)   ...       0.16 
freq.     454.86  E(vib)   ...       0.16 
freq.     454.88  E(vib)   ...       0.16 
freq.     455.57  E(vib)   ...       0.16 
freq.     457.53  E(vib)   ...       0.16 
freq.     497.89  E(vib)   ...       0.14 
freq.     497.90  E(vib)   ...       0.14 
freq.     500.74  E(vib)   ...       0.14 
freq.     502.34  E(vib)   ...       0.14 
freq.     507.99  E(vib)   ...       0.14 
freq.     514.87  E(vib)   ...       0.13 
freq.     516.56  E(vib)   ...       0.13 
freq.     516.57  E(vib)   ...       0.13 
freq.     547.97  E(vib)   ...       0.12 
freq.     548.37  E(vib)   ...       0.12 
freq.     548.38  E(vib)   ...       0.12 
freq.     549.99  E(vib)   ...       0.12 
freq.     569.28  E(vib)   ...       0.11 
freq.     570.61  E(vib)   ...       0.11 
freq.     570.62  E(vib)   ...       0.11 
freq.     570.76  E(vib)   ...       0.11 
freq.     571.48  E(vib)   ...       0.11 
freq.     571.48  E(vib)   ...       0.11 
freq.     571.77  E(vib)   ...       0.11 
freq.     571.87  E(vib)   ...       0.11 
freq.     572.42  E(vib)   ...       0.11 
freq.     583.32  E(vib)   ...       0.11 
freq.     585.11  E(vib)   ...       0.11 
freq.     585.94  E(vib)   ...       0.11 
freq.     585.95  E(vib)   ...       0.11 
freq.     595.70  E(vib)   ...       0.10 
freq.     597.66  E(vib)   ...       0.10 
freq.     597.66  E(vib)   ...       0.10 
freq.     608.30  E(vib)   ...       0.10 
freq.     608.30  E(vib)   ...       0.10 
freq.     608.37  E(vib)   ...       0.10 
freq.     608.92  E(vib)   ...       0.10 
freq.     653.10  E(vib)   ...       0.08 
freq.     653.41  E(vib)   ...       0.08 
freq.     653.44  E(vib)   ...       0.08 
freq.     653.45  E(vib)   ...       0.08 
freq.     676.52  E(vib)   ...       0.08 
freq.     677.70  E(vib)   ...       0.08 
freq.     678.34  E(vib)   ...       0.08 
freq.     678.34  E(vib)   ...       0.08 
freq.     679.63  E(vib)   ...       0.08 
freq.     679.63  E(vib)   ...       0.08 
freq.     680.34  E(vib)   ...       0.08 
freq.     681.77  E(vib)   ...       0.08 
freq.     705.14  E(vib)   ...       0.07 
freq.     705.26  E(vib)   ...       0.07 
freq.     706.05  E(vib)   ...       0.07 
freq.     706.18  E(vib)   ...       0.07 
freq.     706.19  E(vib)   ...       0.07 
freq.     706.38  E(vib)   ...       0.07 
freq.     708.41  E(vib)   ...       0.07 
freq.     709.19  E(vib)   ...       0.07 
freq.     709.20  E(vib)   ...       0.07 
freq.     710.19  E(vib)   ...       0.07 
freq.     714.69  E(vib)   ...       0.07 
freq.     714.70  E(vib)   ...       0.07 
freq.     715.02  E(vib)   ...       0.07 
freq.     715.03  E(vib)   ...       0.07 
freq.     718.59  E(vib)   ...       0.07 
freq.     718.64  E(vib)   ...       0.07 
freq.     797.24  E(vib)   ...       0.05 
freq.     798.57  E(vib)   ...       0.05 
freq.     798.57  E(vib)   ...       0.05 
freq.     801.53  E(vib)   ...       0.05 
freq.     829.16  E(vib)   ...       0.04 
freq.     829.18  E(vib)   ...       0.04 
freq.     831.77  E(vib)   ...       0.04 
freq.     831.80  E(vib)   ...       0.04 
freq.     831.80  E(vib)   ...       0.04 
freq.     831.88  E(vib)   ...       0.04 
freq.     834.21  E(vib)   ...       0.04 
freq.     834.23  E(vib)   ...       0.04 
freq.     834.31  E(vib)   ...       0.04 
freq.     834.33  E(vib)   ...       0.04 
freq.     835.77  E(vib)   ...       0.04 
freq.     835.83  E(vib)   ...       0.04 
freq.     878.09  E(vib)   ...       0.04 
freq.     878.94  E(vib)   ...       0.04 
freq.     878.94  E(vib)   ...       0.04 
freq.     882.22  E(vib)   ...       0.04 
freq.     916.24  E(vib)   ...       0.03 
freq.     916.26  E(vib)   ...       0.03 
freq.     921.49  E(vib)   ...       0.03 
freq.     921.85  E(vib)   ...       0.03 
freq.     921.86  E(vib)   ...       0.03 
freq.     922.28  E(vib)   ...       0.03 
freq.     923.57  E(vib)   ...       0.03 
freq.     923.69  E(vib)   ...       0.03 
freq.     923.94  E(vib)   ...       0.03 
freq.     924.05  E(vib)   ...       0.03 
freq.     928.87  E(vib)   ...       0.03 
freq.     928.99  E(vib)   ...       0.03 
freq.     959.31  E(vib)   ...       0.03 
freq.     959.33  E(vib)   ...       0.03 
freq.     962.92  E(vib)   ...       0.03 
freq.     962.96  E(vib)   ...       0.03 
freq.     962.97  E(vib)   ...       0.03 
freq.     963.01  E(vib)   ...       0.03 
freq.     965.63  E(vib)   ...       0.03 
freq.     965.75  E(vib)   ...       0.03 
freq.     966.90  E(vib)   ...       0.03 
freq.     966.94  E(vib)   ...       0.03 
freq.     966.94  E(vib)   ...       0.03 
freq.     967.03  E(vib)   ...       0.03 
freq.     978.16  E(vib)   ...       0.03 
freq.     978.38  E(vib)   ...       0.03 
freq.     978.38  E(vib)   ...       0.03 
freq.     979.56  E(vib)   ...       0.03 
freq.    1014.15  E(vib)   ...       0.02 
freq.    1014.21  E(vib)   ...       0.02 
freq.    1014.21  E(vib)   ...       0.02 
freq.    1014.34  E(vib)   ...       0.02 
freq.    1033.68  E(vib)   ...       0.02 
freq.    1033.69  E(vib)   ...       0.02 
freq.    1034.06  E(vib)   ...       0.02 
freq.    1034.06  E(vib)   ...       0.02 
freq.    1034.07  E(vib)   ...       0.02 
freq.    1034.07  E(vib)   ...       0.02 
freq.    1034.49  E(vib)   ...       0.02 
freq.    1034.49  E(vib)   ...       0.02 
freq.    1036.28  E(vib)   ...       0.02 
freq.    1036.28  E(vib)   ...       0.02 
freq.    1036.28  E(vib)   ...       0.02 
freq.    1036.28  E(vib)   ...       0.02 
freq.    1046.03  E(vib)   ...       0.02 
freq.    1046.06  E(vib)   ...       0.02 
freq.    1049.11  E(vib)   ...       0.02 
freq.    1049.12  E(vib)   ...       0.02 
freq.    1049.18  E(vib)   ...       0.02 
freq.    1049.18  E(vib)   ...       0.02 
freq.    1052.53  E(vib)   ...       0.02 
freq.    1052.61  E(vib)   ...       0.02 
freq.    1099.05  E(vib)   ...       0.02 
freq.    1099.05  E(vib)   ...       0.02 
freq.    1099.29  E(vib)   ...       0.02 
freq.    1099.29  E(vib)   ...       0.02 
freq.    1100.49  E(vib)   ...       0.02 
freq.    1100.64  E(vib)   ...       0.02 
freq.    1104.97  E(vib)   ...       0.02 
freq.    1105.04  E(vib)   ...       0.02 
freq.    1122.69  E(vib)   ...       0.01 
freq.    1122.71  E(vib)   ...       0.01 
freq.    1122.71  E(vib)   ...       0.01 
freq.    1122.75  E(vib)   ...       0.01 
freq.    1144.56  E(vib)   ...       0.01 
freq.    1144.56  E(vib)   ...       0.01 
freq.    1144.72  E(vib)   ...       0.01 
freq.    1144.72  E(vib)   ...       0.01 
freq.    1144.83  E(vib)   ...       0.01 
freq.    1144.91  E(vib)   ...       0.01 
freq.    1146.89  E(vib)   ...       0.01 
freq.    1147.00  E(vib)   ...       0.01 
freq.    1150.63  E(vib)   ...       0.01 
freq.    1151.01  E(vib)   ...       0.01 
freq.    1151.02  E(vib)   ...       0.01 
freq.    1152.28  E(vib)   ...       0.01 
freq.    1191.22  E(vib)   ...       0.01 
freq.    1191.27  E(vib)   ...       0.01 
freq.    1191.28  E(vib)   ...       0.01 
freq.    1191.39  E(vib)   ...       0.01 
freq.    1210.40  E(vib)   ...       0.01 
freq.    1210.60  E(vib)   ...       0.01 
freq.    1211.41  E(vib)   ...       0.01 
freq.    1211.81  E(vib)   ...       0.01 
freq.    1211.82  E(vib)   ...       0.01 
freq.    1211.82  E(vib)   ...       0.01 
freq.    1211.83  E(vib)   ...       0.01 
freq.    1212.01  E(vib)   ...       0.01 
freq.    1212.02  E(vib)   ...       0.01 
freq.    1212.47  E(vib)   ...       0.01 
freq.    1216.39  E(vib)   ...       0.01 
freq.    1217.01  E(vib)   ...       0.01 
freq.    1293.72  E(vib)   ...       0.01 
freq.    1293.86  E(vib)   ...       0.01 
freq.    1293.86  E(vib)   ...       0.01 
freq.    1294.07  E(vib)   ...       0.01 
freq.    1325.25  E(vib)   ...       0.01 
freq.    1325.29  E(vib)   ...       0.01 
freq.    1326.70  E(vib)   ...       0.01 
freq.    1326.72  E(vib)   ...       0.01 
freq.    1326.74  E(vib)   ...       0.01 
freq.    1326.76  E(vib)   ...       0.01 
freq.    1330.45  E(vib)   ...       0.01 
freq.    1330.49  E(vib)   ...       0.01 
freq.    1350.30  E(vib)   ...       0.01 
freq.    1350.30  E(vib)   ...       0.01 
freq.    1350.34  E(vib)   ...       0.01 
freq.    1351.77  E(vib)   ...       0.01 
freq.    1372.49  E(vib)   ...       0.01 
freq.    1372.50  E(vib)   ...       0.01 
freq.    1374.35  E(vib)   ...       0.01 
freq.    1374.35  E(vib)   ...       0.01 
freq.    1374.43  E(vib)   ...       0.01 
freq.    1375.04  E(vib)   ...       0.01 
freq.    1375.53  E(vib)   ...       0.01 
freq.    1376.50  E(vib)   ...       0.01 
freq.    1386.15  E(vib)   ...       0.00 
freq.    1386.43  E(vib)   ...       0.00 
freq.    1386.43  E(vib)   ...       0.00 
freq.    1386.97  E(vib)   ...       0.00 
freq.    1388.93  E(vib)   ...       0.00 
freq.    1388.93  E(vib)   ...       0.00 
freq.    1388.94  E(vib)   ...       0.00 
freq.    1388.98  E(vib)   ...       0.00 
freq.    1454.34  E(vib)   ...       0.00 
freq.    1454.35  E(vib)   ...       0.00 
freq.    1456.80  E(vib)   ...       0.00 
freq.    1456.81  E(vib)   ...       0.00 
freq.    1457.60  E(vib)   ...       0.00 
freq.    1458.23  E(vib)   ...       0.00 
freq.    1461.43  E(vib)   ...       0.00 
freq.    1463.08  E(vib)   ...       0.00 
freq.    1468.52  E(vib)   ...       0.00 
freq.    1468.53  E(vib)   ...       0.00 
freq.    1469.46  E(vib)   ...       0.00 
freq.    1471.20  E(vib)   ...       0.00 
freq.    1511.98  E(vib)   ...       0.00 
freq.    1511.98  E(vib)   ...       0.00 
freq.    1512.16  E(vib)   ...       0.00 
freq.    1513.60  E(vib)   ...       0.00 
freq.    1535.80  E(vib)   ...       0.00 
freq.    1535.80  E(vib)   ...       0.00 
freq.    1537.23  E(vib)   ...       0.00 
freq.    1539.04  E(vib)   ...       0.00 
freq.    1542.60  E(vib)   ...       0.00 
freq.    1542.60  E(vib)   ...       0.00 
freq.    1543.59  E(vib)   ...       0.00 
freq.    1544.82  E(vib)   ...       0.00 
freq.    1636.97  E(vib)   ...       0.00 
freq.    1636.97  E(vib)   ...       0.00 
freq.    1637.46  E(vib)   ...       0.00 
freq.    1637.87  E(vib)   ...       0.00 
freq.    1638.31  E(vib)   ...       0.00 
freq.    1638.31  E(vib)   ...       0.00 
freq.    1638.73  E(vib)   ...       0.00 
freq.    1640.25  E(vib)   ...       0.00 
freq.    1640.69  E(vib)   ...       0.00 
freq.    1641.00  E(vib)   ...       0.00 
freq.    1641.01  E(vib)   ...       0.00 
freq.    1641.84  E(vib)   ...       0.00 
freq.    1668.20  E(vib)   ...       0.00 
freq.    1668.51  E(vib)   ...       0.00 
freq.    1668.51  E(vib)   ...       0.00 
freq.    1669.45  E(vib)   ...       0.00 
freq.    1681.22  E(vib)   ...       0.00 
freq.    1681.38  E(vib)   ...       0.00 
freq.    1681.38  E(vib)   ...       0.00 
freq.    1682.94  E(vib)   ...       0.00 
freq.    1686.93  E(vib)   ...       0.00 
freq.    1687.01  E(vib)   ...       0.00 
freq.    1687.01  E(vib)   ...       0.00 
freq.    1688.42  E(vib)   ...       0.00 
freq.    2332.43  E(vib)   ...       0.00 
freq.    2333.19  E(vib)   ...       0.00 
freq.    2333.19  E(vib)   ...       0.00 
freq.    2337.03  E(vib)   ...       0.00 
freq.    2340.11  E(vib)   ...       0.00 
freq.    2340.41  E(vib)   ...       0.00 
freq.    2340.42  E(vib)   ...       0.00 
freq.    2341.13  E(vib)   ...       0.00 
freq.    3222.91  E(vib)   ...       0.00 
freq.    3222.91  E(vib)   ...       0.00 
freq.    3223.18  E(vib)   ...       0.00 
freq.    3223.19  E(vib)   ...       0.00 
freq.    3223.24  E(vib)   ...       0.00 
freq.    3223.24  E(vib)   ...       0.00 
freq.    3224.11  E(vib)   ...       0.00 
freq.    3224.12  E(vib)   ...       0.00 
freq.    3226.33  E(vib)   ...       0.00 
freq.    3226.35  E(vib)   ...       0.00 
freq.    3226.35  E(vib)   ...       0.00 
freq.    3226.37  E(vib)   ...       0.00 
freq.    3226.60  E(vib)   ...       0.00 
freq.    3226.62  E(vib)   ...       0.00 
freq.    3227.16  E(vib)   ...       0.00 
freq.    3227.18  E(vib)   ...       0.00 
freq.    3227.84  E(vib)   ...       0.00 
freq.    3227.84  E(vib)   ...       0.00 
freq.    3227.84  E(vib)   ...       0.00 
freq.    3227.84  E(vib)   ...       0.00 
freq.    3232.41  E(vib)   ...       0.00 
freq.    3232.43  E(vib)   ...       0.00 
freq.    3232.43  E(vib)   ...       0.00 
freq.    3232.44  E(vib)   ...       0.00 
freq.    3236.34  E(vib)   ...       0.00 
freq.    3236.34  E(vib)   ...       0.00 
freq.    3236.34  E(vib)   ...       0.00 
freq.    3236.34  E(vib)   ...       0.00 
freq.    3236.34  E(vib)   ...       0.00 
freq.    3236.34  E(vib)   ...       0.00 
freq.    3236.43  E(vib)   ...       0.00 
freq.    3236.44  E(vib)   ...       0.00 
freq.    3238.27  E(vib)   ...       0.00 
freq.    3238.27  E(vib)   ...       0.00 
freq.    3238.27  E(vib)   ...       0.00 
freq.    3238.27  E(vib)   ...       0.00 
freq.    3244.97  E(vib)   ...       0.00 
freq.    3245.00  E(vib)   ...       0.00 
freq.    3245.00  E(vib)   ...       0.00 
freq.    3245.00  E(vib)   ...       0.00 
freq.    3249.16  E(vib)   ...       0.00 
freq.    3249.17  E(vib)   ...       0.00 
freq.    3249.18  E(vib)   ...       0.00 
freq.    3249.18  E(vib)   ...       0.00 
freq.    3249.19  E(vib)   ...       0.00 
freq.    3249.19  E(vib)   ...       0.00 
freq.    3249.22  E(vib)   ...       0.00 
freq.    3249.25  E(vib)   ...       0.00 

------------
INNER ENERGY
------------

The inner energy is: U= E(el) + E(ZPE) + E(vib) + E(rot) + E(trans)
    E(el)   - is the total energy from the electronic structure calculation
              = E(kin-el) + E(nuc-el) + E(el-el) + E(nuc-nuc)
    E(ZPE)  - the the zero temperature vibrational energy from the frequency calculation
    E(vib)  - the the finite temperature correction to E(ZPE) due to population
              of excited vibrational states
    E(rot)  - is the rotational thermal energy
    E(trans)- is the translational thermal energy

Summary of contributions to the inner energy U:
Electronic energy                ...  -3763.37048711 Eh
Zero point energy                ...      1.06085286 Eh     665.69 kcal/mol
Thermal vibrational correction   ...      0.07008165 Eh      43.98 kcal/mol
Thermal rotational correction    ...      0.00141627 Eh       0.89 kcal/mol
Thermal translational correction ...      0.00141627 Eh       0.89 kcal/mol
-----------------------------------------------------------------------
Total thermal energy                  -3762.23672005 Eh


Summary of corrections to the electronic energy:
(perhaps to be used in another calculation)
Total thermal correction                  0.07291420 Eh      45.75 kcal/mol
Non-thermal (ZPE) correction              1.06085286 Eh     665.69 kcal/mol
-----------------------------------------------------------------------
Total correction                          1.13376705 Eh     711.45 kcal/mol


--------
ENTHALPY
--------

The enthalpy is H = U + kB*T
                kB is Boltzmann's constant
Total free energy                 ...  -3762.23672005 Eh 
Thermal Enthalpy correction       ...      0.00094421 Eh       0.59 kcal/mol
-----------------------------------------------------------------------
Total Enthalpy                    ...  -3762.23577584 Eh


Note: Rotational entropy computed according to Herzberg 
Infrared and Raman Spectra, Chapter V,1, Van Nostrand Reinhold, 1945 
Point Group:  C1, Symmetry Number:   1  
Rotational constants in cm-1:     0.000627     0.000361     0.000361 

Vibrational entropy computed according to the QRRHO of S. Grimme
Chem.Eur.J. 2012 18 9955


-------
ENTROPY
-------

The entropy contributions are T*S = T*(S(el)+S(vib)+S(rot)+S(trans))
     S(el)   - electronic entropy
     S(vib)  - vibrational entropy
     S(rot)  - rotational entropy
     S(trans)- translational entropy
The entropies will be listed as mutliplied by the temperature to get
units of energy

Electronic entropy                ...      0.00000000 Eh      0.00 kcal/mol
Vibrational entropy               ...      0.12679858 Eh     79.57 kcal/mol
Rotational entropy                ...      0.02047681 Eh     12.85 kcal/mol
Translational entropy             ...      0.02254060 Eh     14.14 kcal/mol
-----------------------------------------------------------------------
Final entropy term                ...      0.16981599 Eh    106.56 kcal/mol


-------------------
GIBBS FREE ENTHALPY
-------------------

The Gibbs free enthalpy is G = H - T*S

Total enthalpy                    ...  -3762.23577584 Eh 
Total entropy correction          ...     -0.16981599 Eh   -106.56 kcal/mol
-----------------------------------------------------------------------
Final Gibbs free enthalpy         ...  -3762.40559183 Eh

For completeness - the Gibbs free enthalpy minus the electronic energy
G-E(el)                           ...      0.96489527 Eh    605.48 kcal/mol


Timings for individual modules:

Sum of individual times         ...    36556.881 sec (= 609.281 min)
GTO integral calculation        ...        8.878 sec (=   0.148 min)   0.0 %
SCF iterations                  ...      508.874 sec (=   8.481 min)   1.4 %
Analytical frequency calculation...    36039.130 sec (= 600.652 min)  98.6 %
                             ****ORCA TERMINATED NORMALLY****
TOTAL RUN TIME: 0 days 10 hours 9 minutes 33 seconds 700 msec
