
                                 *****************
                                 * O   R   C   A *
                                 *****************

           --- An Ab Initio, DFT and Semiempirical electronic structure package ---

                  #######################################################
                  #                        -***-                        #
                  #  Department of molecular theory and spectroscopy    #
                  #              Directorship: Frank Neese              #
                  # Max Planck Institute for Chemical Energy Conversion #
                  #                  D-45470 Muelheim/Ruhr              #
                  #                       Germany                       #
                  #                                                     #
                  #                  All rights reserved                #
                  #                        -***-                        #
                  #######################################################


                         Program Version 4.0.1.2 - RELEASE -


 With contributions from (in alphabetic order):
   Daniel Aravena         : Magnetic Properties
   Michael Atanasov       : Ab Initio Ligand Field Theory
   Ute Becker             : Parallelization
   Martin Brehm           : Molecular dynamics
   Dmytro Bykov           : SCF Hessian
   Vijay G. Chilkuri      : MRCI spin determinant printing
   Dipayan Datta          : RHF DLPNO-CCSD density
   Achintya Kumar Dutta   : EOM-CC, STEOM-CC
   Dmitry Ganyushin       : Spin-Orbit,Spin-Spin,Magnetic field MRCI
   Yang Guo               : DLPNO-NEVPT2, CIM, IAO-localization
   Andreas Hansen         : Spin unrestricted coupled pair/coupled cluster methods
   Lee Huntington         : MR-EOM, pCC
   Robert Izsak           : Overlap fitted RIJCOSX, COSX-SCS-MP3, EOM
   Christian Kollmar      : KDIIS, OOCD, Brueckner-CCSD(T), CCSD density
   Simone Kossmann        : Meta GGA functionals, TD-DFT gradient, OOMP2, MP2 Hessian
   Martin Krupicka        : AUTO-CI
   Dagmar Lenk            : GEPOL surface
   Dimitrios Liakos       : Extrapolation schemes; parallel MDCI
   Dimitrios Manganas     : ROCIS; embedding schemes
   Dimitrios Pantazis     : SARC Basis sets
   Taras Petrenko         : DFT Hessian,TD-DFT gradient, ASA, ECA, R-Raman, ABS, FL, XAS/XES, NRVS
   Peter Pinski           : DLPNO-MP2
   Christoph Reimann      : Effective Core Potentials
   Marius Retegan         : Local ZFS, SOC
   Christoph Riplinger    : Optimizer, TS searches, QM/MM, DLPNO-CCSD(T), (RO)-DLPNO pert. Triples
   Tobias Risthaus        : Range-separated hybrids, TD-DFT gradient, RPA, STAB
   Michael Roemelt        : Restricted open shell CIS
   Masaaki Saitow         : Open-shell DLPNO
   Barbara Sandhoefer     : DKH picture change effects
   Kantharuban Sivalingam : CASSCF convergence, NEVPT2, FIC-MRCI
   Georgi Stoychev        : AutoAux
   Boris Wezisla          : Elementary symmetry handling
   Frank Wennmohs         : Technical directorship


 We gratefully acknowledge several colleagues who have allowed us to
 interface, adapt or use parts of their codes:
   Stefan Grimme, W. Hujo, H. Kruse,             : VdW corrections, initial TS optimization,
                  C. Bannwarth                     DFT functionals, gCP, sTDA/sTD-DF
   Ed Valeev                                     : LibInt (2-el integral package), F12 methods
   Garnet Chan, S. Sharma, J. Yang, R. Olivares  : DMRG
   Ulf Ekstrom                                   : XCFun DFT Library
   Mihaly Kallay                                 : mrcc  (arbitrary order and MRCC methods)
   Andreas Klamt, Michael Diedenhofen            : otool_cosmo (COSMO solvation model)
   Jiri Pittner, Ondrej Demel                    : Mk-CCSD
   Frank Weinhold                                : gennbo (NPA and NBO analysis)
   Christopher J. Cramer and Donald G. Truhlar   : smd solvation model


 Your calculation uses the libint2 library for the computation of 2-el integrals
 For citations please refer to: http://libint.valeyev.net

 This ORCA versions uses:
   CBLAS   interface :  Fast vector & matrix operations
   LAPACKE interface :  Fast linear algebra routines
   SCALAPACK package :  Parallel linear algebra routines


Your calculation utilizes the atom-pairwise dispersion correction
with the Becke-Johnson damping scheme (D3BJ)
Cite in your paper:
S.Grimme, S.Ehrlich, L.Goerigk, J Comput Chem, (2011), 32, 1456–1465 
S.Grimme, J.Antony, S.Ehrlich and H.Krieg, J.Chem.Phys., 132, (2010), 154104 
   

Your calculation utilizes the basis: def2-SVP
   F. Weigend and R. Ahlrichs, Phys. Chem. Chem. Phys. 7, 3297 (2005).

Your calculation utilizes the auxiliary basis: def2/J
   F. Weigend, Phys. Chem. Chem. Phys. 8, 1057 (2006).

cite the ECPs for Pd [Def2-ECP] as follows:
Ce-Yb(ecp-28): M. Dolg, H. Stoll, H.Preuss, J. Chem. Phys., 1989, 90, 1730-1734.
Y-Cd(ecp-28), Hf-Hg(ecp-46): D. Andrae,U. Haeussermann, M. Dolg, H. Stoll, H. Preuss, Theor. Chim. Acta, 1990, 77, 123-141.
In-Sb(ecp-28), Tl-Bi(ecp-46): B. Metz, H. Stoll, M. Dolg, J. Chem. Phys., 2000, 113, 2563-2569.
Te-Xe(ecp-28), Po-Rn(ecp-46): K. A. Peterson, D. Figgen, E. Goll, H. Stoll, M. Dolg, J. Chem. Phys., 2003, 119, 11113-11123.
Rb(ecp-28), Cs(ecp-46): T. Leininger, A. Nicklass, W. Kuechle, H. Stoll, M. Dolg, A. Bergner, Chem. Phys. Lett., 1996, 255, 274-280.
Sr(ecp-28), Ba(ecp-46): M. Kaupp, P. V. Schleyer, H. Stoll and H. Preuss, J. Chem. Phys., 1991, 94, 1360-1366.
La(ecp-46): M. Dolg, H. Stoll, A. Savin, H. Preuss, Theor. Chim. Acta, 1989, 75, 173-194.
Lu(ecp-28): X. Cao, M. Dolg, J. Chem. Phys., 2001, 115, 7348-7355.

ECP parameters for Pd [Def2-ECP] have been obtained from:
TURBOMOLE (7.0.2)

================================================================================
                                        WARNINGS
                       Please study these warnings very carefully!
================================================================================

Warning: TCutStore was < 0. Adjusted to Thresh (uncritical)

INFO   : the flag for use of LIBINT has been found!

================================================================================
                                       INPUT FILE
================================================================================
NAME = /scratch/141998.1.multiway.q/cage_sp.inp
|  1> ! Freq PBE0 D3BJ def2-SVP RIJCOSX def2/J PAL8
|  2> %maxcore 4000
|  3> *xyz 4 1
|  4> H	2.628378	1.331819	1.453632
|  5> H	1.432286	9.446131	-1.376795
|  6> H	1.356186	9.875948	2.928026
|  7> H	1.009259	13.978768	2.313722
|  8> H	0.320232	14.349396	4.691706
|  9> H	0.116419	12.374341	6.220400
| 10> H	0.337580	8.639174	8.748788
| 11> H	0.170668	6.539004	10.117387
| 12> H	0.098627	4.334150	8.913656
| 13> H	-0.139190	0.613995	7.188353
| 14> H	0.104290	2.177492	3.174181
| 15> H	-0.278024	-1.687592	6.193459
| 16> H	-0.202062	-1.938642	3.710826
| 17> C	0.701906	10.957655	4.686519
| 18> C	0.427259	12.245898	5.181772
| 19> C	0.538849	13.341178	4.334505
| 20> C	0.922398	13.144662	3.013416
| 21> N	1.207595	11.917018	2.547017
| 22> C	1.104097	10.852117	3.347883
| 23> C	0.585877	9.780002	5.467762
| 24> C	0.490873	8.737207	6.087038
| 25> C	0.175708	5.273515	8.364721
| 26> C	0.216254	6.493677	9.026961
| 27> C	0.309419	7.657125	8.274245
| 28> C	0.372952	7.545447	6.874012
| 29> N	0.331299	6.379134	6.224235
| 30> C	0.227002	5.268586	6.958485
| 31> C	0.156647	4.010382	6.274274
| 32> C	0.082072	2.903452	5.773778
| 33> C	0.020637	1.343583	3.874515
| 34> C	-0.006289	1.585187	5.255912
| 35> C	-0.114406	0.468302	6.106153
| 36> C	-0.189528	-0.804825	5.558275
| 37> C	-0.150521	-0.953049	4.178082
| 38> N	-0.045123	0.108796	3.363664
| 39> H	0.635537	1.664330	-0.885102
| 40> H	3.536032	13.040228	-1.309930
| 41> H	4.436476	12.645235	-3.605663
| 42> H	3.842960	10.513729	-4.793798
| 43> H	2.085873	7.160949	-6.987311
| 44> H	1.848424	4.957047	-8.173174
| 45> H	1.484569	2.892031	-6.791685
| 46> H	0.860936	-0.747118	-4.456968
| 47> H	0.409565	-2.757587	-3.026578
| 48> H	0.090360	-2.449783	-0.567800
| 49> C	3.272934	12.140347	-1.869853
| 50> C	3.777261	11.908091	-3.143658
| 51> C	3.445122	10.731043	-3.800681
| 52> C	2.595268	9.801206	-3.171856
| 53> N	2.453077	11.260715	-1.271376
| 54> C	2.109453	10.127681	-1.896998
| 55> C	2.262389	8.565170	-3.786959
| 56> C	2.047249	7.498359	-4.332000
| 57> C	1.852682	6.257428	-5.026485
| 58> C	1.921379	6.236864	-6.431512
| 59> C	1.788940	5.017082	-7.084090
| 60> C	1.587227	3.872437	-6.323867
| 61> N	1.638850	5.167443	-4.285849
| 62> C	1.505845	4.002505	-4.926037
| 63> C	1.260992	2.834566	-4.133446
| 64> C	1.041921	1.808509	-3.517373
| 65> C	0.593502	0.698100	-1.392388
| 66> C	0.787300	0.625554	-2.779149
| 67> C	0.715694	-0.645527	-3.379412
| 68> C	0.468699	-1.759486	-2.588169
| 69> C	0.290787	-1.597420	-1.220173
| 70> N	0.354214	-0.385004	-0.647115
| 71> Pd	1.824890	11.609328	0.635033
| 72> Pd	0.127783	-0.158353	1.355063
| 73> H	8.844093	6.532469	1.548978
| 74> C	5.251151	1.163089	1.640482
| 75> H	4.102600	-3.328019	1.979082
| 76> H	5.835222	-1.516416	1.925584
| 77> H	1.692000	-2.713354	1.757900
| 78> C	2.470642	-1.947257	1.742252
| 79> C	3.814174	-2.281619	1.861506
| 80> C	4.773758	-1.277178	1.832087
| 81> C	4.363143	0.059593	1.683170
| 82> N	2.078847	-0.670238	1.599304
| 83> C	2.987493	0.307464	1.571776
| 84> C	5.926322	2.173774	1.600406
| 85> H	8.606215	2.223105	1.576731
| 86> H	10.010340	4.306285	1.550985
| 87> N	6.118632	4.523973	1.552956
| 88> C	6.748317	3.345697	1.567644
| 89> C	8.147566	3.213067	1.565189
| 90> C	8.919636	4.367764	1.552582
| 91> C	8.278073	5.600027	1.550121
| 92> C	6.871364	5.625511	1.551061
| 93> C	6.206106	6.897237	1.579662
| 94> C	5.729323	8.015820	1.632764
| 95> H	6.917130	9.932942	3.085999
| 96> H	6.067157	12.280533	3.366280
| 97> H	3.931369	12.930383	2.258288
| 98> H	3.505707	9.152420	0.559826
| 99> C	4.096243	9.815206	1.196119
|100> C	5.271972	9.350356	1.802601
|101> C	5.995803	10.258244	2.599106
|102> C	5.526391	11.554317	2.757293
|103> C	4.342569	11.926762	2.135224
|104> N	3.649262	11.066744	1.371014
|105> H	-1.408807	2.382122	0.894443
|106> H	-2.387794	-1.650602	1.228255
|107> H	-4.811103	-1.173494	0.864233
|108> H	-5.543096	1.203489	0.519109
|109> H	-8.029697	7.169421	-0.137417
|110> H	-6.557393	9.202735	-0.212358
|111> H	-6.942812	4.917195	0.117120
|112> H	-0.629176	10.110992	0.457698
|113> H	-1.989469	14.552512	-1.148558
|114> H	0.374894	14.032617	-0.515663
|115> H	-3.722055	12.751932	-0.983635
|116> C	-2.685567	12.555139	-0.701716
|117> C	-1.725002	13.555116	-0.792306
|118> C	-0.409176	13.275650	-0.440637
|119> N	-0.051803	12.058622	0.001247
|120> C	-0.962249	11.084033	0.090434
|121> C	-2.306559	11.274941	-0.257351
|122> C	-3.197861	10.176799	-0.153896
|123> C	-3.888023	9.179104	-0.063229
|124> C	-6.347166	5.830507	0.089463
|125> C	-6.944630	7.076695	-0.052093
|126> C	-6.134367	8.204089	-0.093326
|127> C	-4.742995	8.031616	0.010591
|128> N	-4.156799	6.840933	0.164687
|129> C	-4.945547	5.764715	0.200636
|130> C	-4.333923	4.477209	0.363093
|131> C	-3.915303	3.343040	0.507301
|132> C	-2.742387	-0.630194	1.068000
|133> C	-4.088338	-0.355860	0.867582
|134> C	-4.490641	0.958394	0.677264
|135> C	-3.530484	1.988401	0.685477
|136> C	-2.191486	1.620217	0.885862
|137> N	-1.822345	0.347775	1.074115
|138> *
|139> 
|140>                          ****END OF INPUT****
================================================================================

                       ****************************
                       * Single Point Calculation *
                       ****************************

---------------------------------
CARTESIAN COORDINATES (ANGSTROEM)
---------------------------------
  H      2.628378    1.331819    1.453632
  H      1.432286    9.446131   -1.376795
  H      1.356186    9.875948    2.928026
  H      1.009259   13.978768    2.313722
  H      0.320232   14.349396    4.691706
  H      0.116419   12.374341    6.220400
  H      0.337580    8.639174    8.748788
  H      0.170668    6.539004   10.117387
  H      0.098627    4.334150    8.913656
  H     -0.139190    0.613995    7.188353
  H      0.104290    2.177492    3.174181
  H     -0.278024   -1.687592    6.193459
  H     -0.202062   -1.938642    3.710826
  C      0.701906   10.957655    4.686519
  C      0.427259   12.245898    5.181772
  C      0.538849   13.341178    4.334505
  C      0.922398   13.144662    3.013416
  N      1.207595   11.917018    2.547017
  C      1.104097   10.852117    3.347883
  C      0.585877    9.780002    5.467762
  C      0.490873    8.737207    6.087038
  C      0.175708    5.273515    8.364721
  C      0.216254    6.493677    9.026961
  C      0.309419    7.657125    8.274245
  C      0.372952    7.545447    6.874012
  N      0.331299    6.379134    6.224235
  C      0.227002    5.268586    6.958485
  C      0.156647    4.010382    6.274274
  C      0.082072    2.903452    5.773778
  C      0.020637    1.343583    3.874515
  C     -0.006289    1.585187    5.255912
  C     -0.114406    0.468302    6.106153
  C     -0.189528   -0.804825    5.558275
  C     -0.150521   -0.953049    4.178082
  N     -0.045123    0.108796    3.363664
  H      0.635537    1.664330   -0.885102
  H      3.536032   13.040228   -1.309930
  H      4.436476   12.645235   -3.605663
  H      3.842960   10.513729   -4.793798
  H      2.085873    7.160949   -6.987311
  H      1.848424    4.957047   -8.173174
  H      1.484569    2.892031   -6.791685
  H      0.860936   -0.747118   -4.456968
  H      0.409565   -2.757587   -3.026578
  H      0.090360   -2.449783   -0.567800
  C      3.272934   12.140347   -1.869853
  C      3.777261   11.908091   -3.143658
  C      3.445122   10.731043   -3.800681
  C      2.595268    9.801206   -3.171856
  N      2.453077   11.260715   -1.271376
  C      2.109453   10.127681   -1.896998
  C      2.262389    8.565170   -3.786959
  C      2.047249    7.498359   -4.332000
  C      1.852682    6.257428   -5.026485
  C      1.921379    6.236864   -6.431512
  C      1.788940    5.017082   -7.084090
  C      1.587227    3.872437   -6.323867
  N      1.638850    5.167443   -4.285849
  C      1.505845    4.002505   -4.926037
  C      1.260992    2.834566   -4.133446
  C      1.041921    1.808509   -3.517373
  C      0.593502    0.698100   -1.392388
  C      0.787300    0.625554   -2.779149
  C      0.715694   -0.645527   -3.379412
  C      0.468699   -1.759486   -2.588169
  C      0.290787   -1.597420   -1.220173
  N      0.354214   -0.385004   -0.647115
  Pd     1.824890   11.609328    0.635033
  Pd     0.127783   -0.158353    1.355063
  H      8.844093    6.532469    1.548978
  C      5.251151    1.163089    1.640482
  H      4.102600   -3.328019    1.979082
  H      5.835222   -1.516416    1.925584
  H      1.692000   -2.713354    1.757900
  C      2.470642   -1.947257    1.742252
  C      3.814174   -2.281619    1.861506
  C      4.773758   -1.277178    1.832087
  C      4.363143    0.059593    1.683170
  N      2.078847   -0.670238    1.599304
  C      2.987493    0.307464    1.571776
  C      5.926322    2.173774    1.600406
  H      8.606215    2.223105    1.576731
  H     10.010340    4.306285    1.550985
  N      6.118632    4.523973    1.552956
  C      6.748317    3.345697    1.567644
  C      8.147566    3.213067    1.565189
  C      8.919636    4.367764    1.552582
  C      8.278073    5.600027    1.550121
  C      6.871364    5.625511    1.551061
  C      6.206106    6.897237    1.579662
  C      5.729323    8.015820    1.632764
  H      6.917130    9.932942    3.085999
  H      6.067157   12.280533    3.366280
  H      3.931369   12.930383    2.258288
  H      3.505707    9.152420    0.559826
  C      4.096243    9.815206    1.196119
  C      5.271972    9.350356    1.802601
  C      5.995803   10.258244    2.599106
  C      5.526391   11.554317    2.757293
  C      4.342569   11.926762    2.135224
  N      3.649262   11.066744    1.371014
  H     -1.408807    2.382122    0.894443
  H     -2.387794   -1.650602    1.228255
  H     -4.811103   -1.173494    0.864233
  H     -5.543096    1.203489    0.519109
  H     -8.029697    7.169421   -0.137417
  H     -6.557393    9.202735   -0.212358
  H     -6.942812    4.917195    0.117120
  H     -0.629176   10.110992    0.457698
  H     -1.989469   14.552512   -1.148558
  H      0.374894   14.032617   -0.515663
  H     -3.722055   12.751932   -0.983635
  C     -2.685567   12.555139   -0.701716
  C     -1.725002   13.555116   -0.792306
  C     -0.409176   13.275650   -0.440637
  N     -0.051803   12.058622    0.001247
  C     -0.962249   11.084033    0.090434
  C     -2.306559   11.274941   -0.257351
  C     -3.197861   10.176799   -0.153896
  C     -3.888023    9.179104   -0.063229
  C     -6.347166    5.830507    0.089463
  C     -6.944630    7.076695   -0.052093
  C     -6.134367    8.204089   -0.093326
  C     -4.742995    8.031616    0.010591
  N     -4.156799    6.840933    0.164687
  C     -4.945547    5.764715    0.200636
  C     -4.333923    4.477209    0.363093
  C     -3.915303    3.343040    0.507301
  C     -2.742387   -0.630194    1.068000
  C     -4.088338   -0.355860    0.867582
  C     -4.490641    0.958394    0.677264
  C     -3.530484    1.988401    0.685477
  C     -2.191486    1.620217    0.885862
  N     -1.822345    0.347775    1.074115

----------------------------
CARTESIAN COORDINATES (A.U.)
----------------------------
  NO LB      ZA    FRAG     MASS         X           Y           Z
   0 H     1.0000    0     1.008    4.966915    2.516773    2.746966
   1 H     1.0000    0     1.008    2.706628   17.850601   -2.601765
   2 H     1.0000    0     1.008    2.562820   18.662837    5.533167
   3 H     1.0000    0     1.008    1.907223   26.416043    4.372301
   4 H     1.0000    0     1.008    0.605151   27.116429    8.866039
   5 H     1.0000    0     1.008    0.220000   23.384116   11.754852
   6 H     1.0000    0     1.008    0.637934   16.325673   16.532813
   7 H     1.0000    0     1.008    0.322516   12.356927   19.119091
   8 H     1.0000    0     1.008    0.186378    8.190357   16.844369
   9 H     1.0000    0     1.008   -0.263031    1.160282   13.584019
  10 H     1.0000    0     1.008    0.197080    4.114864    5.998333
  11 H     1.0000    0     1.008   -0.525389   -3.189087   11.703941
  12 H     1.0000    0     1.008   -0.381842   -3.663502    7.012445
  13 C     6.0000    0    12.011    1.326410   20.706967    8.856237
  14 C     6.0000    0    12.011    0.807402   23.141393    9.792130
  15 C     6.0000    0    12.011    1.018277   25.211173    8.191027
  16 C     6.0000    0    12.011    1.743080   24.839811    5.694531
  17 N     7.0000    0    14.007    2.282024   22.519900    4.813165
  18 C     6.0000    0    12.011    2.086441   20.507529    6.326582
  19 C     6.0000    0    12.011    1.107147   18.481525   10.332573
  20 C     6.0000    0    12.011    0.927616   16.510928   11.502835
  21 C     6.0000    0    12.011    0.332040    9.965499   15.807032
  22 C     6.0000    0    12.011    0.408661   12.271271   17.058484
  23 C     6.0000    0    12.011    0.584717   14.469869   15.636057
  24 C     6.0000    0    12.011    0.704777   14.258828   12.990000
  25 N     7.0000    0    14.007    0.626064   12.054816   11.762100
  26 C     6.0000    0    12.011    0.428972    9.956185   13.149631
  27 C     6.0000    0    12.011    0.296020    7.578524   11.856660
  28 C     6.0000    0    12.011    0.155094    5.486729   10.910859
  29 C     6.0000    0    12.011    0.038998    2.539004    7.321772
  30 C     6.0000    0    12.011   -0.011884    2.995569    9.932234
  31 C     6.0000    0    12.011   -0.216196    0.884963   11.538957
  32 C     6.0000    0    12.011   -0.358156   -1.520899   10.503618
  33 C     6.0000    0    12.011   -0.284443   -1.801002    7.895431
  34 N     7.0000    0    14.007   -0.085270    0.205595    6.356404
  35 H     1.0000    0     1.008    1.200991    3.145128   -1.672600
  36 H     1.0000    0     1.008    6.682132   24.642460   -2.475409
  37 H     1.0000    0     1.008    8.383725   23.896031   -6.813716
  38 H     1.0000    0     1.008    7.262142   19.868068   -9.058965
  39 H     1.0000    0     1.008    3.941729   13.532232  -13.204104
  40 H     1.0000    0     1.008    3.493015    9.367461  -15.445061
  41 H     1.0000    0     1.008    2.805429    5.465147  -12.834425
  42 H     1.0000    0     1.008    1.626933   -1.411848   -8.422449
  43 H     1.0000    0     1.008    0.773966   -5.211084   -5.719404
  44 H     1.0000    0     1.008    0.170756   -4.629419   -1.072986
  45 C     6.0000    0    12.011    6.184949   22.941931   -3.533510
  46 C     6.0000    0    12.011    7.137989   22.503031   -5.940653
  47 C     6.0000    0    12.011    6.510337   20.278732   -7.182246
  48 C     6.0000    0    12.011    4.904346   18.521595   -5.993939
  49 N     7.0000    0    14.007    4.635644   21.279667   -2.402552
  50 C     6.0000    0    12.011    3.986288   19.138543   -3.584807
  51 C     6.0000    0    12.011    4.275296   16.185826   -7.156315
  52 C     6.0000    0    12.011    3.868740   14.169845   -8.186294
  53 C     6.0000    0    12.011    3.501062   11.824825   -9.498680
  54 C     6.0000    0    12.011    3.630880   11.785965  -12.153796
  55 C     6.0000    0    12.011    3.380607    9.480911  -13.386990
  56 C     6.0000    0    12.011    2.999424    7.317845  -11.950377
  57 N     7.0000    0    14.007    3.096978    9.765052   -8.099081
  58 C     6.0000    0    12.011    2.845635    7.563638   -9.308861
  59 C     6.0000    0    12.011    2.382930    5.356553   -7.811081
  60 C     6.0000    0    12.011    1.968945    3.417587   -6.646872
  61 C     6.0000    0    12.011    1.121556    1.319218   -2.631232
  62 C     6.0000    0    12.011    1.487781    1.182126   -5.251830
  63 C     6.0000    0    12.011    1.352466   -1.219869   -6.386163
  64 C     6.0000    0    12.011    0.885713   -3.324947   -4.890931
  65 C     6.0000    0    12.011    0.549508   -3.018686   -2.305793
  66 N     7.0000    0    14.007    0.669367   -0.727552   -1.222870
  67 Pd   18.0000*   0   106.400    3.448542   21.938451    1.200038
  68 Pd   18.0000*   0   106.400    0.241475   -0.299244    2.560698
  69 H     1.0000    0     1.008   16.712914   12.344577    2.927144
  70 C     6.0000    0    12.011    9.923237    2.197920    3.100062
  71 H     1.0000    0     1.008    7.752790   -6.289044    3.739923
  72 H     1.0000    0     1.008   11.026972   -2.865611    3.638826
  73 H     1.0000    0     1.008    3.197417   -5.127496    3.321950
  74 C     6.0000    0    12.011    4.668837   -3.679782    3.292379
  75 C     6.0000    0    12.011    7.207744   -4.311635    3.517737
  76 C     6.0000    0    12.011    9.021095   -2.413517    3.462143
  77 C     6.0000    0    12.011    8.245145    0.112614    3.180730
  78 N     7.0000    0    14.007    3.928452   -1.266566    3.022247
  79 C     6.0000    0    12.011    5.645544    0.581023    2.970226
  80 C     6.0000    0    12.011   11.199126    4.107838    3.024329
  81 H     1.0000    0     1.008   16.263389    4.201060    2.979590
  82 H     1.0000    0     1.008   18.916801    8.137699    2.930937
  83 N     7.0000    0    14.007   11.562539    8.549070    2.934662
  84 C     6.0000    0    12.011   12.752471    6.322451    2.962418
  85 C     6.0000    0    12.011   15.396668    6.071817    2.957779
  86 C     6.0000    0    12.011   16.855669    8.253878    2.933955
  87 C     6.0000    0    12.011   15.643291   10.582517    2.929304
  88 C     6.0000    0    12.011   12.984996   10.630675    2.931081
  89 C     6.0000    0    12.011   11.727841   13.033889    2.985129
  90 C     6.0000    0    12.011   10.826851   15.147705    3.085477
  91 H     1.0000    0     1.008   13.071481   18.770540    5.831693
  92 H     1.0000    0     1.008   11.465265   23.206844    6.361347
  93 H     1.0000    0     1.008    7.429211   24.434883    4.267546
  94 H     1.0000    0     1.008    6.624826   17.295567    1.057918
  95 C     6.0000    0    12.011    7.740777   18.548051    2.260337
  96 C     6.0000    0    12.011    9.962583   17.669612    3.406422
  97 C     6.0000    0    12.011   11.330426   19.385272    4.911599
  98 C     6.0000    0    12.011   10.443365   21.834495    5.210529
  99 C     6.0000    0    12.011    8.206266   22.538314    4.034989
 100 N     7.0000    0    14.007    6.896106   20.913115    2.590841
 101 H     1.0000    0     1.008   -2.662259    4.501558    1.690252
 102 H     1.0000    0     1.008   -4.512277   -3.119186    2.321066
 103 H     1.0000    0     1.008   -9.091667   -2.217582    1.633164
 104 H     1.0000    0     1.008  -10.474933    2.274265    0.980974
 105 H     1.0000    0     1.008  -15.173928   13.548242   -0.259680
 106 H     1.0000    0     1.008  -12.391677   17.390649   -0.401298
 107 H     1.0000    0     1.008  -13.120013    9.292152    0.221325
 108 H     1.0000    0     1.008   -1.188970   19.107006    0.864924
 109 H     1.0000    0     1.008   -3.759552   27.500262   -2.170460
 110 H     1.0000    0     1.008    0.708447   26.517803   -0.974462
 111 H     1.0000    0     1.008   -7.033665   24.097659   -1.858801
 112 C     6.0000    0    12.011   -5.074986   23.725774   -1.326051
 113 C     6.0000    0    12.011   -3.259781   25.615457   -1.497241
 114 C     6.0000    0    12.011   -0.773231   25.087343   -0.832683
 115 N     7.0000    0    14.007   -0.097893   22.787493    0.002356
 116 C     6.0000    0    12.011   -1.818387   20.945787    0.170895
 117 C     6.0000    0    12.011   -4.358765   21.306551   -0.486323
 118 C     6.0000    0    12.011   -6.043082   19.231363   -0.290821
 119 C     6.0000    0    12.011   -7.347299   17.345993   -0.119485
 120 C     6.0000    0    12.011  -11.994405   11.018061    0.169061
 121 C     6.0000    0    12.011  -13.123449   13.373015   -0.098442
 122 C     6.0000    0    12.011  -11.592274   15.503481   -0.176361
 123 C     6.0000    0    12.011   -8.962962   15.177555    0.020014
 124 N     7.0000    0    14.007   -7.855212   12.927490    0.311213
 125 C     6.0000    0    12.011   -9.345729   10.893733    0.379147
 126 C     6.0000    0    12.011   -8.189928    8.460699    0.686146
 127 C     6.0000    0    12.011   -7.398850    6.317430    0.958660
 128 C     6.0000    0    12.011   -5.182360   -1.190894    2.018228
 129 C     6.0000    0    12.011   -7.725839   -0.672478    1.639492
 130 C     6.0000    0    12.011   -8.486082    1.811102    1.279843
 131 C     6.0000    0    12.011   -6.671648    3.757533    1.295364
 132 C     6.0000    0    12.011   -4.141308    3.061766    1.674037
 133 N     7.0000    0    14.007   -3.443733    0.657200    2.029783
* core charge reduced due to ECP

--------------------------------
INTERNAL COORDINATES (ANGSTROEM)
--------------------------------
 H      0   0   0     0.000000000000     0.00000000     0.00000000
 H      1   0   0     8.676636001823     0.00000000     0.00000000
 H      2   1   0     4.326894695452    76.74851895     0.00000000
 H      3   2   1     4.163034914596    87.28064964   176.45160118
 H      4   3   2     2.503383954844    91.64326660   165.34275491
 H      5   4   3     2.505850621571   119.02474838   359.05794540
 H      6   5   4     4.515875395131   171.68718964    48.24912398
 H      7   6   5     2.512297129610   173.30780631   214.62321408
 H      8   7   6     2.513073693181   118.32030803    81.54947230
 H      9   8   7     4.107649034585   175.89422306   200.72727608
 H      1   2   3     3.169616998326    79.50119332    49.44001794
 H     10   9   8     2.511253007835   178.49151368   330.33404103
 H     12  10   9     2.496450067723   118.97750403   189.49920650
 C      3   2   1     2.165749289114   149.62581109   206.19601316
 C      6   5   4     1.091726720491    59.28242967     0.79122514
 C      5   4   3     1.091736910897    59.82538968   359.76876123
 C      4   3   2     1.092176426313    32.79964314   165.15333858
 N     17   4   3     1.343865747292   117.28675787     0.15392487
 C      3   2   1     1.092123931123   118.38073961   186.26600533
 C     14   3   2     1.417980938623    93.28265175   145.83186336
 C     20  14   3     1.216531929798   177.14563466   346.80376998
 C      9   8   7     1.090723483753    58.89774533     0.29963020
 C      8   7  21     1.092319313114    59.20956084   359.17534614
 C      7   6  15     1.091056524279   119.98016142   336.96641302
 C     24   7   6     1.406115525859   120.22792178     7.95953569
 N     25  24   7     1.335751150517   123.52872318   180.64055196
 C     26  25  24     1.335409220806   117.45788372   359.82457915
 C     27  26  25     1.433935781045   118.11069809   178.88806950
 C     28  27  26     1.217107925182   175.74109202   186.00106724
 C     11   1   2     1.092185770025   101.85014690   189.14401323
 C     30  11   1     1.402624388032   120.09733877   125.59770337
 C     10   9  22     1.092244266135   122.38808847     1.02518360
 C     12  10  32     1.091131445868    58.97923678     0.10717755
 C     13  12  10     1.091960716265    59.01137055   359.61403316
 N     30  11   1     1.337905847648   117.61978785   305.98899428
 H      1   2   3     3.090575276410    64.12814988   136.07627623
 H      2   1   3     4.165063193536   137.06488658    66.85331773
 H     37   2   1     2.497440464651    91.76926881    96.71828645
 H     38  37   2     2.511422674206   118.94105192   358.22240159
 H     39  38  37     4.374927169124   169.27941757    76.43819686
 H     40  39  38     2.513928620302   161.13759500   173.58838348
 H     41  40  39     2.511014416208   118.36750368    82.52348731
 H     36   1   2     4.315566346131   122.17637502   130.25668863
 H     43  36   1     2.508333496906    88.07956987    63.01236420
 H     44  43  36     2.498444393563   119.04173894     0.00000000
 C     37   2   1     1.092025703770    32.75360160    97.10034740
 C     38  37   2     1.091510106681    59.99832919   359.63982100
 C     39  38  37     1.091687603909    59.12265846     1.66851285
 C     48  39  38     1.407930945931   119.65727261   180.44520506
 N     46  37   2     1.343165170559   117.27503457     0.24999759
 C      2   1   3     1.092555128860   130.78817286   111.73362833
 C     49  48  39     1.420191931587   121.52237557     1.41665469
 C     52  49  48     1.217144453630   176.57361437    44.48274747
 C     53  52  49     1.435296303721   176.78931056   327.83581739
 C     40  39  48     1.090827159390   117.02099001   315.13396283
 C     41  40  39     1.092358231780    59.11336844    82.88718081
 C     42  41  40     1.091140811685    58.89054936     0.38565077
 N     54  53  52     1.335040489628   117.33317398   138.11825206
 C     58  54  53     1.335893539625   117.51969307   182.38256679
 C     59  58  54     1.432562386987   117.56969280   180.70319838
 C     60  59  58     1.216688543391   176.82457386   171.42675967
 C     36   1   2     1.092111001648   106.32782797   156.72976753
 C     62  36   1     1.402115065906   119.99142916   231.86833715
 C     43  36   1     1.092036127141    28.88099653    63.15136810
 C     44  43  36     1.091743966064    59.10157241   359.90333306
 C     45  44  43     1.091917669619    58.98569371   359.85557953
 N     62  36   1     1.336340101280   117.70506651    51.88212167
 Pd    18  17   4     2.032586792583   121.95165311     1.59801248
 Pd    67  62  36     2.027648494499   118.69126858   358.76127861
 H      1   2   3     8.104996251908    60.62534570   281.86459792
 C      1   2   3     2.634828446964   102.72329876   269.77067936
 H     71   1   2     4.647996388474    79.69237172   193.61526638
 H     72  71   1     2.507338521320    29.48990237   180.00816816
 H     72  71   1     2.497544173653    89.67068185     0.16233209
 C     74  72  71     1.092443516836    59.06374682   359.85218538
 C     72  71   1     1.091772244221    29.69731933     0.24908035
 C     73  72  71     1.092099964723    59.23407349   359.88011196
 C     77  73  72     1.406320609802   120.07159435   179.82658211
 N     75  74  72     1.343396806268   117.40469966   179.96542308
 C      1   2   3     1.091890449627   163.33201126   220.93259729
 C     71   1   2     1.216119292768   119.80747132    14.09576913
 H     81  71   1     2.680451556107   124.79593403   185.08103102
 H     82  81  71     2.512343285568   125.03836559   181.58575400
 N     81  71   1     2.358531318045   150.93504267     6.80225591
 C     84  81  71     1.336058856767    32.79848739   178.81275588
 C     82  81  71     1.091108099323    66.20455163   181.06241768
 C     83  82  81     1.092436466558    59.24583130   359.54169973
 C     70   1   2     1.090792386393    18.83590029   200.23249571
 C     84  81  71     1.334164540187   150.31417354   176.32824630
 C     89  84  81     1.435504525538   118.03076121   183.52203686
 C     90  89  84     1.217115351716   175.27367365   162.52700079
 H     91  90  89     2.682933878678   120.45861922   339.52260779
 H     92  91  90     2.512408215830   125.33340794   181.48068350
 H     93  92  91     2.492296466215   118.94434753     1.07345705
 H     91  90  89     2.717999931439   133.43865388   160.78877070
 C     95  91  90     1.092193586751    65.25680354   178.16884959
 C     96  95  91     1.402228447959   120.27521556     0.39186240
 C     92  91  90     1.091663696191    66.27787297   181.34451227
 C     93  92  91     1.091184086935    58.90407402     0.02911907
 C     94  93  92     1.091551785183    59.17332886   358.35353096
 N     96  95  91     1.340420695465   117.53656102   180.68820874
 H     11   1   2     2.743818747103    90.46011225    65.01224114
 H     69  67  62     2.927629585483    89.78276076   128.38058551
 H    103  69  67     2.496511680251   137.98447667   270.97625860
 H    104 103  69     2.510970431868   118.94197001   358.79590251
 H    105 104 103     6.496657259738   174.14027000   205.90499080
 H    106 105 104     2.511505732522   121.47319197   157.13817926
 H    106 105 104     2.513688533345     3.11870593   158.31138726
 H      2   1   3     2.838490847936    96.21947347   316.66925466
 H      4   3   2     4.616160156875   106.69665574    42.19705108
 H    110   4   3     2.502210879966    33.96679731   278.87429929
 H    110   4   3     2.504224866046   108.10043368    34.54191867
 C    112 110   4     1.092022518794    59.32919262   325.54507356
 C    110   4   3     1.091630460554    58.95476635     0.03084933
 C    111 110   4     1.092425606009    58.87879792    77.92701955
 N    115 111 110     1.343180584795   117.35315991   179.87476421
 C    109   2   1     1.092075664369   102.28958700   187.97248580
 C    117 109   2     1.401631066575   119.82294704   123.04456017
 C    118 117 109     1.418110730653   118.63551300   358.36762230
 C    119 118 117     1.216527601067   175.62046688   342.47763744
 C    108 106 107     1.090732724506    58.88988519     0.61939428
 C    106 105 104     1.092359231453    62.22240700   156.66703447
 C    107 106 105     1.091060698136    58.86944466   359.46921300
 C    123 107 106     1.405866893060   120.27004626   179.47404350
 N    124 123 107     1.336075347471   123.50962048   179.64217768
 C    125 124 123     1.334788717973   117.54132388     1.00884495
 C    126 125 124     1.434624652744   118.34142303   179.89066310
 C    127 126 125     1.217529454356   174.87508724   174.58846933
 C    103  69  67     1.092085320448    78.99421970   270.28717632
 C    104 103  69     1.091295477395    59.99061719   359.04240756
 C    105 104 103     1.092129154484    59.11769569     0.23705479
 C    131 105 104     1.408148904792   119.58919620   179.88512137
 C    102  11   1     1.092318305086   110.46547742   113.75759654
 N    133 102  11     1.338212581488   117.67613425   307.25906732

---------------------------
INTERNAL COORDINATES (A.U.)
---------------------------
 H      0   0   0     0.000000000000     0.00000000     0.00000000
 H      1   0   0    16.396465807168     0.00000000     0.00000000
 H      2   1   0     8.176645984721    76.74851895     0.00000000
 H      3   2   1     7.866995874539    87.28064964   176.45160118
 H      4   3   2     4.730710082707    91.64326660   165.34275491
 H      5   4   3     4.735371407286   119.02474838   359.05794540
 H      6   5   4     8.533767751712   171.68718964    48.24912398
 H      7   6   5     4.747553541999   173.30780631   214.62321408
 H      8   7   6     4.749021034474   118.32030803    81.54947230
 H      9   8   7     7.762331729631   175.89422306   200.72727608
 H      1   2   3     5.989708076257    79.50119332    49.44001794
 H     10   9   8     4.745580437794   178.49151368   330.33404103
 H     12  10   9     4.717606935005   118.97750403   189.49920650
 C      3   2   1     4.092673031160   149.62581109   206.19601316
 C      6   5   4     2.063064514811    59.28242967     0.79122514
 C      5   4   3     2.063083771888    59.82538968   359.76876123
 C      4   3   2     2.063914335656    32.79964314   165.15333858
 N     17   4   3     2.539538223140   117.28675787     0.15392487
 C      3   2   1     2.063815134123   118.38073961   186.26600533
 C     14   3   2     2.679595637119    93.28265175   145.83186336
 C     20  14   3     2.298912180488   177.14563466   346.80376998
 C      9   8   7     2.061168672130    58.89774533     0.29963020
 C      8   7  21     2.064184352578    59.20956084   359.17534614
 C      7   6  15     2.061798027515   119.98016142   336.96641302
 C     24   7   6     2.657173256528   120.22792178     7.95953569
 N     25  24   7     2.524203857547   123.52872318   180.64055196
 C     26  25  24     2.523557704036   117.45788372   359.82457915
 C     27  26  25     2.709745919806   118.11069809   178.88806950
 C     28  27  26     2.300000654019   175.74109202   186.00106724
 C     11   1   2     2.063931992714   101.85014690   189.14401323
 C     30  11   1     2.650575962139   120.09733877   125.59770337
 C     10   9  22     2.064042534341   122.38808847     1.02518360
 C     12  10  32     2.061939608799    58.97923678     0.10717755
 C     13  12  10     2.063506702741    59.01137055   359.61403316
 N     30  11   1     2.528275645026   117.61978785   305.98899428
 H      1   2   3     5.840340868683    64.12814988   136.07627623
 H      2   1   3     7.870828766259   137.06488658    66.85331773
 H     37   2   1     4.719478513963    91.76926881    96.71828645
 H     38  37   2     4.745901060770   118.94105192   358.22240159
 H     39  38  37     8.267414205495   169.27941757    76.43819686
 H     40  39  38     4.750636612597   161.13759500   173.58838348
 H     41  40  39     4.745129564960   118.36750368    82.52348731
 H     36   1   2     8.155238506955   122.17637502   130.25668863
 H     43  36   1     4.740063361694    88.07956987    63.01236420
 H     44  43  36     4.721375664665   119.04173894     0.00000000
 C     37   2   1     2.063629511328    32.75360160    97.10034740
 C     38  37   2     2.062655174034    59.99832919   359.63982100
 C     39  38  37     2.062990595185    59.12265846     1.66851285
 C     48  39  38     2.660603903282   119.65727261   180.44520506
 N     46  37   2     2.538214324978   117.27503457     0.24999759
 C      2   1   3     2.064629979756   130.78817286   111.73362833
 C     49  48  39     2.683773808305   121.52237557     1.41665469
 C     52  49  48     2.300069682782   176.57361437    44.48274747
 C     53  52  49     2.712316935062   176.78931056   327.83581739
 C     40  39  48     2.061364590690   117.02099001   315.13396283
 C     41  40  39     2.064257898198    59.11336844    82.88718081
 C     42  41  40     2.061957307629    58.89054936     0.38565077
 N     54  53  52     2.522860903092   117.33317398   138.11825206
 C     58  54  53     2.524472933967   117.51969307   182.38256679
 C     59  58  54     2.707150581163   117.56969280   180.70319838
 C     60  59  58     2.299208137289   176.82457386   171.42675967
 C     36   1   2     2.063790700957   106.32782797   156.72976753
 C     62  36   1     2.649613482808   119.99142916   231.86833715
 C     43  36   1     2.063649208644    28.88099653    63.15136810
 C     44  43  36     2.063097104223    59.10157241   359.90333306
 C     45  44  43     2.063425356370    58.98569371   359.85557953
 N     62  36   1     2.525316813196   117.70506651    51.88212167
 Pd    18  17   4     3.841032381406   121.95165311     1.59801248
 Pd    67  62  36     3.831700350462   118.69126858   358.76127861
 H      1   2   3    15.316223232564    60.62534570   281.86459792
 C      1   2   3     4.979104174626   102.72329876   269.77067936
 H     71   1   2     8.783440245670    79.69237172   193.61526638
 H     72  71   1     4.738183130327    29.48990237   180.00816816
 H     72  71   1     4.719674495575    89.67068185     0.16233209
 C     74  72  71     2.064419063598    59.06374682   359.85218538
 C     72  71   1     2.063150542195    29.69731933     0.24908035
 C     73  72  71     2.063769844192    59.23407349   359.88011196
 C     77  73  72     2.657560809016   120.07159435   179.82658211
 N     75  74  72     2.538652053030   117.40469966   179.96542308
 C      1   2   3     2.063373918039   163.33201126   220.93259729
 C     71   1   2     2.298132409509   119.80747132    14.09576913
 H     81  71   1     5.065319356285   124.79593403   185.08103102
 H     82  81  71     4.747640764120   125.03836559   181.58575400
 N     81  71   1     4.456978269382   150.93504267     6.80225591
 C     84  81  71     2.524785338089    32.79848739   178.81275588
 C     82  81  71     2.061895490224    66.20455163   181.06241768
 C     83  82  81     2.064405740503    59.24583130   359.54169973
 C     70   1   2     2.061298879249    18.83590029   200.23249571
 C     84  81  71     2.521205598543   150.31417354   176.32824630
 C     89  84  81     2.712710417272   118.03076121   183.52203686
 C     90  89  84     2.300014688134   175.27367365   162.52700079
 H     91  90  89     5.070010266120   120.45861922   339.52260779
 H     92  91  90     4.747763464533   125.33340794   181.48068350
 H     93  92  91     4.709757765686   118.94434753     1.07345705
 H     91  90  89     5.136275502436   133.43865388   160.78877070
 C     95  91  90     2.063946764185    65.25680354   178.16884959
 C     96  95  91     2.649827743836   120.27521556     0.39186240
 C     92  91  90     2.062945416146    66.27787297   181.34451227
 C     93  92  91     2.062039086001    58.90407402     0.02911907
 C     94  93  92     2.062733934989    59.17332886   358.35353096
 N     96  95  91     2.533028018668   117.53656102   180.68820874
 H     11   1   2     5.185065993143    90.46011225    65.01224114
 H     69  67  62     5.532418138128    89.78276076   128.38058551
 H    103  69  67     4.717723365810   137.98447667   270.97625860
 H    104 103  69     4.745046446604   118.94197001   358.79590251
 H    105 104 103    12.276903006855   174.14027000   205.90499080
 H    106 105 104     4.746058018241   121.47319197   157.13817926
 H    106 105 104     4.750182914000     3.11870593   158.31138726
 H      2   1   3     5.363970336240    96.21947347   316.66925466
 H      4   3   2     8.723278486813   106.69665574    42.19705108
 H    110   4   3     4.728493292453    33.96679731   278.87429929
 H    110   4   3     4.732299174583   108.10043368    34.54191867
 C    112 110   4     2.063623492596    59.32919262   325.54507356
 C    110   4   3     2.062882609893    58.95476635     0.03084933
 C    111 110   4     2.064385217041    58.87879792    77.92701955
 N    115 111 110     2.538243453662   117.35315991   179.87476421
 C    109   2   1     2.063723923177   102.28958700   187.97248580
 C    117 109   2     2.648698856623   119.82294704   123.04456017
 C    118 117 109     2.679840908509   118.63551300   358.36762230
 C    119 118 117     2.298904000373   175.62046688   342.47763744
 C    108 106 107     2.061186134623    58.88988519     0.61939428
 C    106 105 104     2.064259787307    62.22240700   156.66703447
 C    107 106 105     2.061805914961    58.86944466   359.46921300
 C    123 107 106     2.656703408630   120.27004626   179.47404350
 N    124 123 107     2.524816501005   123.50962048   179.64217768
 C    125 124 123     2.522385123618   117.54132388     1.00884495
 C    126 125 124     2.711047698658   118.34142303   179.89066310
 C    127 126 125     2.300797228716   174.87508724   174.58846933
 C    103  69  67     2.063742170522    78.99421970   270.28717632
 C    104 103  69     2.062249583463    59.99061719   359.04240756
 C    105 104 103     2.063825004847    59.11769569     0.23705479
 C    131 105 104     2.661015785838   119.58919620   179.88512137
 C    102  11   1     2.064182447682   110.46547742   113.75759654
 N    133 102  11     2.528855287981   117.67613425   307.25906732

---------------------
BASIS SET INFORMATION
---------------------
There are 4 groups of distinct atoms

 Group   1 Type H   : 4s1p contracted to 2s1p pattern {31/1}
 Group   2 Type C   : 7s4p1d contracted to 3s2p1d pattern {511/31/1}
 Group   3 Type N   : 7s4p1d contracted to 3s2p1d pattern {511/31/1}
 Group   4 Type Pd  : 7s6p5d1f contracted to 5s3p2d1f pattern {31111/411/41/1}

Atom   0H    basis set group =>   1
Atom   1H    basis set group =>   1
Atom   2H    basis set group =>   1
Atom   3H    basis set group =>   1
Atom   4H    basis set group =>   1
Atom   5H    basis set group =>   1
Atom   6H    basis set group =>   1
Atom   7H    basis set group =>   1
Atom   8H    basis set group =>   1
Atom   9H    basis set group =>   1
Atom  10H    basis set group =>   1
Atom  11H    basis set group =>   1
Atom  12H    basis set group =>   1
Atom  13C    basis set group =>   2
Atom  14C    basis set group =>   2
Atom  15C    basis set group =>   2
Atom  16C    basis set group =>   2
Atom  17N    basis set group =>   3
Atom  18C    basis set group =>   2
Atom  19C    basis set group =>   2
Atom  20C    basis set group =>   2
Atom  21C    basis set group =>   2
Atom  22C    basis set group =>   2
Atom  23C    basis set group =>   2
Atom  24C    basis set group =>   2
Atom  25N    basis set group =>   3
Atom  26C    basis set group =>   2
Atom  27C    basis set group =>   2
Atom  28C    basis set group =>   2
Atom  29C    basis set group =>   2
Atom  30C    basis set group =>   2
Atom  31C    basis set group =>   2
Atom  32C    basis set group =>   2
Atom  33C    basis set group =>   2
Atom  34N    basis set group =>   3
Atom  35H    basis set group =>   1
Atom  36H    basis set group =>   1
Atom  37H    basis set group =>   1
Atom  38H    basis set group =>   1
Atom  39H    basis set group =>   1
Atom  40H    basis set group =>   1
Atom  41H    basis set group =>   1
Atom  42H    basis set group =>   1
Atom  43H    basis set group =>   1
Atom  44H    basis set group =>   1
Atom  45C    basis set group =>   2
Atom  46C    basis set group =>   2
Atom  47C    basis set group =>   2
Atom  48C    basis set group =>   2
Atom  49N    basis set group =>   3
Atom  50C    basis set group =>   2
Atom  51C    basis set group =>   2
Atom  52C    basis set group =>   2
Atom  53C    basis set group =>   2
Atom  54C    basis set group =>   2
Atom  55C    basis set group =>   2
Atom  56C    basis set group =>   2
Atom  57N    basis set group =>   3
Atom  58C    basis set group =>   2
Atom  59C    basis set group =>   2
Atom  60C    basis set group =>   2
Atom  61C    basis set group =>   2
Atom  62C    basis set group =>   2
Atom  63C    basis set group =>   2
Atom  64C    basis set group =>   2
Atom  65C    basis set group =>   2
Atom  66N    basis set group =>   3
Atom  67Pd   basis set group =>   4
Atom  68Pd   basis set group =>   4
Atom  69H    basis set group =>   1
Atom  70C    basis set group =>   2
Atom  71H    basis set group =>   1
Atom  72H    basis set group =>   1
Atom  73H    basis set group =>   1
Atom  74C    basis set group =>   2
Atom  75C    basis set group =>   2
Atom  76C    basis set group =>   2
Atom  77C    basis set group =>   2
Atom  78N    basis set group =>   3
Atom  79C    basis set group =>   2
Atom  80C    basis set group =>   2
Atom  81H    basis set group =>   1
Atom  82H    basis set group =>   1
Atom  83N    basis set group =>   3
Atom  84C    basis set group =>   2
Atom  85C    basis set group =>   2
Atom  86C    basis set group =>   2
Atom  87C    basis set group =>   2
Atom  88C    basis set group =>   2
Atom  89C    basis set group =>   2
Atom  90C    basis set group =>   2
Atom  91H    basis set group =>   1
Atom  92H    basis set group =>   1
Atom  93H    basis set group =>   1
Atom  94H    basis set group =>   1
Atom  95C    basis set group =>   2
Atom  96C    basis set group =>   2
Atom  97C    basis set group =>   2
Atom  98C    basis set group =>   2
Atom  99C    basis set group =>   2
Atom 100N    basis set group =>   3
Atom 101H    basis set group =>   1
Atom 102H    basis set group =>   1
Atom 103H    basis set group =>   1
Atom 104H    basis set group =>   1
Atom 105H    basis set group =>   1
Atom 106H    basis set group =>   1
Atom 107H    basis set group =>   1
Atom 108H    basis set group =>   1
Atom 109H    basis set group =>   1
Atom 110H    basis set group =>   1
Atom 111H    basis set group =>   1
Atom 112C    basis set group =>   2
Atom 113C    basis set group =>   2
Atom 114C    basis set group =>   2
Atom 115N    basis set group =>   3
Atom 116C    basis set group =>   2
Atom 117C    basis set group =>   2
Atom 118C    basis set group =>   2
Atom 119C    basis set group =>   2
Atom 120C    basis set group =>   2
Atom 121C    basis set group =>   2
Atom 122C    basis set group =>   2
Atom 123C    basis set group =>   2
Atom 124N    basis set group =>   3
Atom 125C    basis set group =>   2
Atom 126C    basis set group =>   2
Atom 127C    basis set group =>   2
Atom 128C    basis set group =>   2
Atom 129C    basis set group =>   2
Atom 130C    basis set group =>   2
Atom 131C    basis set group =>   2
Atom 132C    basis set group =>   2
Atom 133N    basis set group =>   3
-------------------------------
AUXILIARY BASIS SET INFORMATION
-------------------------------
There are 4 groups of distinct atoms

 Group   1 Type H   : 5s2p1d contracted to 3s1p1d pattern {311/2/1}
 Group   2 Type C   : 12s5p4d2f1g contracted to 6s4p3d1f1g pattern {711111/2111/211/2/1}
 Group   3 Type N   : 12s5p4d2f1g contracted to 6s4p3d1f1g pattern {711111/2111/211/2/1}
 Group   4 Type Pd  : 11s5p5d3f3g contracted to 8s5p5d2f3g pattern {41111111/11111/11111/21/111}

Atom   0H    basis set group =>   1
Atom   1H    basis set group =>   1
Atom   2H    basis set group =>   1
Atom   3H    basis set group =>   1
Atom   4H    basis set group =>   1
Atom   5H    basis set group =>   1
Atom   6H    basis set group =>   1
Atom   7H    basis set group =>   1
Atom   8H    basis set group =>   1
Atom   9H    basis set group =>   1
Atom  10H    basis set group =>   1
Atom  11H    basis set group =>   1
Atom  12H    basis set group =>   1
Atom  13C    basis set group =>   2
Atom  14C    basis set group =>   2
Atom  15C    basis set group =>   2
Atom  16C    basis set group =>   2
Atom  17N    basis set group =>   3
Atom  18C    basis set group =>   2
Atom  19C    basis set group =>   2
Atom  20C    basis set group =>   2
Atom  21C    basis set group =>   2
Atom  22C    basis set group =>   2
Atom  23C    basis set group =>   2
Atom  24C    basis set group =>   2
Atom  25N    basis set group =>   3
Atom  26C    basis set group =>   2
Atom  27C    basis set group =>   2
Atom  28C    basis set group =>   2
Atom  29C    basis set group =>   2
Atom  30C    basis set group =>   2
Atom  31C    basis set group =>   2
Atom  32C    basis set group =>   2
Atom  33C    basis set group =>   2
Atom  34N    basis set group =>   3
Atom  35H    basis set group =>   1
Atom  36H    basis set group =>   1
Atom  37H    basis set group =>   1
Atom  38H    basis set group =>   1
Atom  39H    basis set group =>   1
Atom  40H    basis set group =>   1
Atom  41H    basis set group =>   1
Atom  42H    basis set group =>   1
Atom  43H    basis set group =>   1
Atom  44H    basis set group =>   1
Atom  45C    basis set group =>   2
Atom  46C    basis set group =>   2
Atom  47C    basis set group =>   2
Atom  48C    basis set group =>   2
Atom  49N    basis set group =>   3
Atom  50C    basis set group =>   2
Atom  51C    basis set group =>   2
Atom  52C    basis set group =>   2
Atom  53C    basis set group =>   2
Atom  54C    basis set group =>   2
Atom  55C    basis set group =>   2
Atom  56C    basis set group =>   2
Atom  57N    basis set group =>   3
Atom  58C    basis set group =>   2
Atom  59C    basis set group =>   2
Atom  60C    basis set group =>   2
Atom  61C    basis set group =>   2
Atom  62C    basis set group =>   2
Atom  63C    basis set group =>   2
Atom  64C    basis set group =>   2
Atom  65C    basis set group =>   2
Atom  66N    basis set group =>   3
Atom  67Pd   basis set group =>   4
Atom  68Pd   basis set group =>   4
Atom  69H    basis set group =>   1
Atom  70C    basis set group =>   2
Atom  71H    basis set group =>   1
Atom  72H    basis set group =>   1
Atom  73H    basis set group =>   1
Atom  74C    basis set group =>   2
Atom  75C    basis set group =>   2
Atom  76C    basis set group =>   2
Atom  77C    basis set group =>   2
Atom  78N    basis set group =>   3
Atom  79C    basis set group =>   2
Atom  80C    basis set group =>   2
Atom  81H    basis set group =>   1
Atom  82H    basis set group =>   1
Atom  83N    basis set group =>   3
Atom  84C    basis set group =>   2
Atom  85C    basis set group =>   2
Atom  86C    basis set group =>   2
Atom  87C    basis set group =>   2
Atom  88C    basis set group =>   2
Atom  89C    basis set group =>   2
Atom  90C    basis set group =>   2
Atom  91H    basis set group =>   1
Atom  92H    basis set group =>   1
Atom  93H    basis set group =>   1
Atom  94H    basis set group =>   1
Atom  95C    basis set group =>   2
Atom  96C    basis set group =>   2
Atom  97C    basis set group =>   2
Atom  98C    basis set group =>   2
Atom  99C    basis set group =>   2
Atom 100N    basis set group =>   3
Atom 101H    basis set group =>   1
Atom 102H    basis set group =>   1
Atom 103H    basis set group =>   1
Atom 104H    basis set group =>   1
Atom 105H    basis set group =>   1
Atom 106H    basis set group =>   1
Atom 107H    basis set group =>   1
Atom 108H    basis set group =>   1
Atom 109H    basis set group =>   1
Atom 110H    basis set group =>   1
Atom 111H    basis set group =>   1
Atom 112C    basis set group =>   2
Atom 113C    basis set group =>   2
Atom 114C    basis set group =>   2
Atom 115N    basis set group =>   3
Atom 116C    basis set group =>   2
Atom 117C    basis set group =>   2
Atom 118C    basis set group =>   2
Atom 119C    basis set group =>   2
Atom 120C    basis set group =>   2
Atom 121C    basis set group =>   2
Atom 122C    basis set group =>   2
Atom 123C    basis set group =>   2
Atom 124N    basis set group =>   3
Atom 125C    basis set group =>   2
Atom 126C    basis set group =>   2
Atom 127C    basis set group =>   2
Atom 128C    basis set group =>   2
Atom 129C    basis set group =>   2
Atom 130C    basis set group =>   2
Atom 131C    basis set group =>   2
Atom 132C    basis set group =>   2
Atom 133N    basis set group =>   3
-------------------------
ECP PARAMETER INFORMATION
-------------------------

 Group 1, Type Pd ECP Def2-ECP (replacing 28 core electrons, lmax=3)

Atom  67Pd   ECP group =>   1
Atom  68Pd   ECP group =>   1



           ************************************************************
           *        Program running with 8 parallel MPI-processes     *
           *              working on a common directory               *
           ************************************************************
------------------------------------------------------------------------------
                           ORCA GTO INTEGRAL CALCULATION
                           -- RI-GTO INTEGRALS CHOSEN --
------------------------------------------------------------------------------

                         BASIS SET STATISTICS AND STARTUP INFO

Gaussian basis set:
 # of primitive gaussian shells          ... 1314
 # of primitive gaussian functions       ... 2534
 # of contracted shells                  ...  682
 # of contracted basis functions         ... 1514
 Highest angular momentum                ...    3
 Maximum contraction depth               ...    5
Auxiliary gaussian basis set:
 # of primitive gaussian shells          ... 2518
 # of primitive gaussian functions       ... 7062
 # of contracted shells                  ... 1586
 # of contracted aux-basis functions     ... 4974
 Highest angular momentum                ...    4
 Maximum contraction depth               ...    7
Ratio of auxiliary to basis functions    ...  3.29
Integral package used                  ... LIBINT
 One Electron integrals                  
   ECP integrals                         ... done
 Ordering auxiliary basis shells         ... done
 Integral threshhold             Thresh  ...  1.000e-10
 Primitive cut-off               TCut    ...  1.000e-11
 Pre-screening matrix                    ... done
 Shell pair data                         ... 
 Ordering of the shell pairs             ... done (   0.013 sec) 70940 of 232903 pairs
 Determination of significant pairs      ... done (   0.000 sec)
 Creation of shell pair data             ... done (   0.008 sec)
 Storage of shell pair data              ... done (   0.012 sec)
 Shell pair data done in (   0.033 sec)
 Computing two index integrals           ... done
 Cholesky decomposition of the V-matrix  ... done


Timings:
 Total evaluation time                   ...   6.259 sec (  0.104 min)
 One electron matrix time                ...   3.483 sec (  0.058 min) = 55.6%
 Schwartz matrix evaluation time         ...   1.065 sec (  0.018 min) = 17.0%
 Two index repulsion integral time       ...   0.599 sec (  0.010 min) =  9.6%
 Cholesky decomposition of V             ...   1.062 sec (  0.018 min) = 17.0%
 Three index repulsion integral time     ...   0.000 sec (  0.000 min) =  0.0%



           ************************************************************
           *        Program running with 8 parallel MPI-processes     *
           *              working on a common directory               *
           ************************************************************
-------------------------------------------------------------------------------
                                 ORCA SCF
-------------------------------------------------------------------------------

------------
SCF SETTINGS
------------
Hamiltonian:
 Density Functional     Method          .... DFT(GTOs)
 Exchange Functional    Exchange        .... PBE
   PBE kappa parameter   XKappa         ....  0.804000
   PBE mue parameter    XMuePBE         ....  0.219520
 Correlation Functional Correlation     .... PBE
   PBE beta parameter  CBetaPBE         ....  0.066725
 LDA part of GGA corr.  LDAOpt          .... PW91-LDA
 Gradients option       PostSCFGGA      .... off
 Hybrid DFT is turned on
   Fraction HF Exchange ScalHFX         ....  0.250000
   Scaling of DF-GGA-X  ScalDFX         ....  0.750000
   Scaling of DF-GGA-C  ScalDFC         ....  1.000000
   Scaling of DF-LDA-C  ScalLDAC        ....  1.000000
   Perturbative correction              ....  0.000000
   NL short-range parameter             ....  6.900000
 RI-approximation to the Coulomb term is turned on
   Number of auxiliary basis functions  .... 4974
   RIJ-COSX (HFX calculated with COS-X)).... on


General Settings:
 Integral files         IntName         .... /scratch/141998.1.multiway.q/cage_sp
 Hartree-Fock type      HFTyp           .... RHF
 Total Charge           Charge          ....    4
 Multiplicity           Mult            ....    1
 Number of Electrons    NEL             ....  616
 Basis Dimension        Dim             .... 1514
 Nuclear Repulsion      ENuc            ....  14745.2096323033 Eh

Convergence Acceleration:
 DIIS                   CNVDIIS         .... on
   Start iteration      DIISMaxIt       ....    12
   Startup error        DIISStart       ....  0.200000
   # of expansion vecs  DIISMaxEq       ....     5
   Bias factor          DIISBfac        ....   1.050
   Max. coefficient     DIISMaxC        ....  10.000
 Newton-Raphson         CNVNR           .... off
 SOSCF                  CNVSOSCF        .... off
 Level Shifting         CNVShift        .... on
   Level shift para.    LevelShift      ....    0.2500
   Turn off err/grad.   ShiftErr        ....    0.0010
 Zerner damping         CNVZerner       .... off
 Static damping         CNVDamp         .... on
   Fraction old density DampFac         ....    0.7000
   Max. Damping (<1)    DampMax         ....    0.9800
   Min. Damping (>=0)   DampMin         ....    0.0000
   Turn off err/grad.   DampErr         ....    0.1000
 Fernandez-Rico         CNVRico         .... off

SCF Procedure:
 Maximum # iterations   MaxIter         ....   125
 SCF integral mode      SCFMode         .... Direct
   Integral package                     .... LIBINT
 Reset frequeny         DirectResetFreq ....    20
 Integral Threshold     Thresh          ....  1.000e-10 Eh
 Primitive CutOff       TCut            ....  1.000e-11 Eh

Convergence Tolerance:
 Convergence Check Mode ConvCheckMode   .... Total+1el-Energy
 Convergence forced     ConvForced      .... 0
 Energy Change          TolE            ....  1.000e-06 Eh
 1-El. energy change                    ....  1.000e-03 Eh
 DIIS Error             TolErr          ....  1.000e-06


Diagonalization of the overlap matrix:
Smallest eigenvalue                        ... 3.759e-04
Time for diagonalization                   ...    0.410 sec
Threshold for overlap eigenvalues          ... 1.000e-08
Number of eigenvalues below threshold      ... 0
Time for construction of square roots      ...    0.281 sec
Total time needed                          ...    0.697 sec

-------------------
DFT GRID GENERATION
-------------------

General Integration Accuracy     IntAcc      ...  4.340
Radial Grid Type                 RadialGrid  ... Gauss-Chebyshev
Angular Grid (max. acc.)         AngularGrid ... Lebedev-110
Angular grid pruning method      GridPruning ... 3 (G Style)
Weight generation scheme         WeightScheme... Becke
Basis function cutoff            BFCut       ...    1.0000e-10
Integration weight cutoff        WCut        ...    1.0000e-14
Grids for H and He will be reduced by one unit

# of grid points (after initial pruning)     ... 187704 (   0.0 sec)
# of grid points (after weights+screening)   ... 163089 (   2.4 sec)
nearest neighbour list constructed           ...    0.0 sec
Grid point re-assignment to atoms done       ...    0.0 sec
Grid point division into batches done        ...    0.1 sec
Reduced shell lists constructed in    0.6 sec

Total number of grid points                  ...   163089
Total number of batches                      ...     2609
Average number of points per batch           ...       62
Average number of grid points per atom       ...     1217
Average number of shells per batch           ...   103.47 (15.17%)
Average number of basis functions per batch  ...   210.97 (13.93%)
Average number of large shells per batch     ...    56.46 (54.57%)
Average number of large basis fcns per batch ...   118.30 (56.08%)
Maximum spatial batch extension              ...  34.95, 21.16, 18.04 au
Average spatial batch extension              ...   0.56,  0.48,  0.50 au

Time for grid setup =    3.054 sec

------------------------------
INITIAL GUESS: MODEL POTENTIAL
------------------------------
Loading Hartree-Fock densities                     ... done
  calling /usr/local/orca_4_0_1_2_linux_x86-64/orca /scratch/141998.1.multiway.q/cage_sp_atom46.inp > /scratch/141998.1.multiway.q/cage_sp_atom46.out in order to generate an atomic fitting density for atom 67 (Pd with ECP) on-the-fly... 
    atom 67 (Pd), assumed electronic state with S=3: 1s2 2s2 2p6 3s2 3p6 4s2 3d10 4p6 5s2 4d8           ... done
Calculating cut-offs                               ... done
Setting up the integral package                    ... done
Initializing the effective Hamiltonian             ... done
Starting the Coulomb interaction                   ... done (   1.8 sec)
Reading the grid                                   ... done
Mapping shells                                     ... done
Starting the XC term evaluation                    ... done (   0.9 sec)
  promolecular density results
     # of electrons  =    675.950485771
     EX              =   -757.175308887
     EC              =    -24.443695383
     EX+EC           =   -781.619004270
Transforming the Hamiltonian                       ... done (   0.2 sec)
Diagonalizing the Hamiltonian                      ... done (   0.4 sec)
Back transforming the eigenvectors                 ... done (   0.1 sec)
Now organizing SCF variables                       ... done
                      ------------------
                      INITIAL GUESS DONE (   7.3 sec)
                      ------------------
--------------------
COSX GRID GENERATION
--------------------

General Integration Accuracy     IntAcc      ...  3.340
Radial Grid Type                 RadialGrid  ... Gauss-Chebyshev
Angular Grid (max. acc.)         AngularGrid ... Lebedev-50
Angular grid pruning method      GridPruning ... 3 (G Style)
Weight generation scheme         WeightScheme... Becke
Basis function cutoff            BFCut       ...    1.0000e-10
Integration weight cutoff        WCut        ...    1.0000e-14
Grids for H and He will be reduced by one unit

# of grid points (after initial pruning)     ...  67412 (   0.0 sec)
# of grid points (after weights+screening)   ...  59831 (   0.9 sec)
nearest neighbour list constructed           ...    0.0 sec
Grid point re-assignment to atoms done       ...    0.0 sec
Grid point division into batches done        ...    0.0 sec
Reduced shell lists constructed in    0.3 sec

Total number of grid points                  ...    59831
Total number of batches                      ...     1005
Average number of points per batch           ...       59
Average number of grid points per atom       ...      446
Average number of shells per batch           ...   117.39 (17.21%)
Average number of basis functions per batch  ...   240.60 (15.89%)
Average number of large shells per batch     ...    64.95 (55.33%)
Average number of large basis fcns per batch ...   137.57 (57.18%)
Maximum spatial batch extension              ...  20.82, 15.00, 16.76 au
Average spatial batch extension              ...   0.74,  0.66,  0.66 au

Overlap Fitting                  UseSFitting ... on
Constructing numerical overlap ... done (      0.1 sec)
Inverting numerical overlap    ... done (      0.1 sec)
Obtaining analytic overlap     ... done (      0.0 sec)
Final contraction and storage  ... done (      0.2 sec)


General Integration Accuracy     IntAcc      ...  3.670
Radial Grid Type                 RadialGrid  ... Gauss-Chebyshev
Angular Grid (max. acc.)         AngularGrid ... Lebedev-50
Angular grid pruning method      GridPruning ... 3 (G Style)
Weight generation scheme         WeightScheme... Becke
Basis function cutoff            BFCut       ...    1.0000e-10
Integration weight cutoff        WCut        ...    1.0000e-14
Grids for H and He will be reduced by one unit

# of grid points (after initial pruning)     ...  84148 (   0.0 sec)
# of grid points (after weights+screening)   ...  74292 (   1.0 sec)
nearest neighbour list constructed           ...    0.0 sec
Grid point re-assignment to atoms done       ...    0.0 sec
Grid point division into batches done        ...    0.0 sec
Reduced shell lists constructed in    0.3 sec

Total number of grid points                  ...    74292
Total number of batches                      ...     1224
Average number of points per batch           ...       60
Average number of grid points per atom       ...      554
Average number of shells per batch           ...   112.12 (16.44%)
Average number of basis functions per batch  ...   229.47 (15.16%)
Average number of large shells per batch     ...    61.44 (54.80%)
Average number of large basis fcns per batch ...   129.43 (56.40%)
Maximum spatial batch extension              ...  19.47, 18.65, 17.95 au
Average spatial batch extension              ...   0.67,  0.58,  0.59 au

Overlap Fitting                  UseSFitting ... on
Constructing numerical overlap ... done (      0.1 sec)
Inverting numerical overlap    ... done (      0.1 sec)
Obtaining analytic overlap     ... done (      0.0 sec)
Final contraction and storage  ... done (      0.2 sec)


General Integration Accuracy     IntAcc      ...  4.010
Radial Grid Type                 RadialGrid  ... Gauss-Chebyshev
Angular Grid (max. acc.)         AngularGrid ... Lebedev-110
Angular grid pruning method      GridPruning ... 3 (G Style)
Weight generation scheme         WeightScheme... Becke
Basis function cutoff            BFCut       ...    1.0000e-10
Integration weight cutoff        WCut        ...    1.0000e-14
Grids for H and He will be reduced by one unit

# of grid points (after initial pruning)     ... 164400 (   0.0 sec)
# of grid points (after weights+screening)   ... 143493 (   2.1 sec)
nearest neighbour list constructed           ...    0.0 sec
Grid point re-assignment to atoms done       ...    0.0 sec
Grid point division into batches done        ...    0.1 sec
Reduced shell lists constructed in    0.7 sec

Total number of grid points                  ...   143493
Total number of batches                      ...     2312
Average number of points per batch           ...       62
Average number of grid points per atom       ...     1071
Average number of shells per batch           ...   105.44 (15.46%)
Average number of basis functions per batch  ...   215.18 (14.21%)
Average number of large shells per batch     ...    57.64 (54.67%)
Average number of large basis fcns per batch ...   120.72 (56.10%)
Maximum spatial batch extension              ...  26.38, 22.41, 17.22 au
Average spatial batch extension              ...   0.60,  0.49,  0.54 au

Overlap Fitting                  UseSFitting ... on
Constructing numerical overlap ... done (      0.2 sec)
Inverting numerical overlap    ... done (      0.1 sec)
Obtaining analytic overlap     ... done (      0.0 sec)
Final contraction and storage  ... done (      0.2 sec)

Time for X-Grid setup             =    7.060 sec
--------------
SCF ITERATIONS
--------------
ITER       Energy         Delta-E        Max-DP      RMS-DP      [F,P]     Damp
               ***  Starting incremental Fock matrix formation  ***
  0  -3826.1146390554   0.000000000000 0.06591370  0.00072557  0.4603311 0.7000
  1  -3826.5654331586  -0.450794103182 0.04340738  0.00053086  0.3179219 0.7000
  2  -3826.7874438514  -0.222010692867 0.02675894  0.00030186  0.2184589 0.7000
                               ***Turning on DIIS***
  3  -3826.9128342953  -0.125390443882 0.01682331  0.00016901  0.1506298 0.7000
  4  -3826.9968687593  -0.084034463982 0.00991060  0.00009928  0.1043190 0.7000
  5  -3827.0556515987  -0.058782839384 0.02366103  0.00023240  0.0730854 0.0000
  6  -3827.1915835053  -0.135931906631 0.00153885  0.00002411  0.0014837 0.0000
  7  -3827.1916892840  -0.000105778725 0.00110917  0.00001023  0.0003690 0.0000
               *** Restarting incremental Fock matrix formation ***
                                   *** Resetting DIIS ***
  8  -3827.1917437698  -0.000054485792 0.00092376  0.00000913  0.0003629 0.0000
  9  -3827.1917269840   0.000016785887 0.00055708  0.00000569  0.0007178 0.0000
 10  -3827.1917504288  -0.000023444822 0.00011963  0.00000096  0.0000911 0.0000
 11  -3827.1917502825   0.000000146267 0.00007943  0.00000042  0.0000810 0.0000
                 **** Energy Check signals convergence ****

               *****************************************************
               *                     SUCCESS                       *
               *           SCF CONVERGED AFTER  12 CYCLES          *
               *****************************************************

Setting up the final grid:

General Integration Accuracy     IntAcc      ...  4.670
Radial Grid Type                 RadialGrid  ... Gauss-Chebyshev
Angular Grid (max. acc.)         AngularGrid ... Lebedev-302
Angular grid pruning method      GridPruning ... 3 (G Style)
Weight generation scheme         WeightScheme... Becke
Basis function cutoff            BFCut       ...    1.0000e-10
Integration weight cutoff        WCut        ...    1.0000e-14
Grids for H and He will be reduced by one unit

# of grid points (after initial pruning)     ... 717356 (   0.0 sec)
# of grid points (after weights+screening)   ... 606561 (   8.9 sec)
nearest neighbour list constructed           ...    0.0 sec
Grid point re-assignment to atoms done       ...    0.1 sec
Grid point division into batches done        ...    1.9 sec
Reduced shell lists constructed in    3.5 sec

Total number of grid points                  ...   606561
Total number of batches                      ...     9547
Average number of points per batch           ...       63
Average number of grid points per atom       ...     4527
Average number of shells per batch           ...    88.77 (13.02%)
Average number of basis functions per batch  ...   179.66 (11.87%)
Average number of large shells per batch     ...    47.56 (53.58%)
Average number of large basis fcns per batch ...    98.81 (55.00%)
Maximum spatial batch extension              ...  36.23, 20.76, 21.77 au
Average spatial batch extension              ...   0.34,  0.31,  0.33 au

Final grid set up in   12.5 sec
Final integration                            ... done (   2.1 sec)
Change in XC energy                          ...     0.000993720
Integrated number of electrons               ...   616.000156396
Previous integrated no of electrons          ...   616.002505407
Old exchange energy                            =   -127.527824174 Eh
New exchange energy                            =   -127.525890878 Eh
Exchange energy change after final integration =      0.001933297 Eh
Total energy after final integration           =  -3827.188823854 Eh
Final COS-X integration done in                =    62.730 sec

----------------
TOTAL SCF ENERGY
----------------

Total Energy       :        -3827.18882385 Eh         -104143.10243 eV

Components:
Nuclear Repulsion  :        14745.20963230 Eh          401237.55262 eV
Electronic Energy  :       -18572.39845616 Eh         -505380.65505 eV
One Electron Energy:       -34509.93576713 Eh         -939063.09327 eV
Two Electron Energy:        15937.53731097 Eh          433682.43822 eV

Virial components:
Potential Energy   :        -7458.26245005 Eh         -202949.63903 eV
Kinetic Energy     :         3631.07362620 Eh           98806.53660 eV
Virial Ratio       :            2.05401025


DFT components:
N(Alpha)           :      308.000078198015 electrons
N(Beta)            :      308.000078198015 electrons
N(Total)           :      616.000156396031 electrons
E(X)               :     -382.102232387687 Eh       
E(C)               :      -21.080310646791 Eh       
E(XC)              :     -403.182543034477 Eh       

---------------
SCF CONVERGENCE
---------------

  Last Energy change         ...   -5.8794e-07  Tolerance :   1.0000e-06
  Last MAX-Density change    ...    0.0000e+00  Tolerance :   1.0000e-05
  Last RMS-Density change    ...    0.0000e+00  Tolerance :   1.0000e-06
  Last DIIS Error            ...    2.7837e-05  Tolerance :   1.0000e-06

             **** THE GBW FILE WAS UPDATED (/scratch/141998.1.multiway.q/cage_sp.gbw) ****
             **** DENSITY FILE WAS UPDATED (/scratch/141998.1.multiway.q/cage_sp.scfp.tmp) ****
             **** ENERGY FILE WAS UPDATED (/scratch/141998.1.multiway.q/cage_sp.en.tmp) ****
----------------
ORBITAL ENERGIES
----------------

  NO   OCC          E(Eh)            E(eV) 
   0   2.0000     -14.759800      -401.6346 
   1   2.0000     -14.759648      -401.6304 
   2   2.0000     -14.758710      -401.6049 
   3   2.0000     -14.758618      -401.6024 
   4   2.0000     -14.758571      -401.6011 
   5   2.0000     -14.758530      -401.6000 
   6   2.0000     -14.758341      -401.5949 
   7   2.0000     -14.758222      -401.5916 
   8   2.0000     -14.653198      -398.7338 
   9   2.0000     -14.652653      -398.7190 
  10   2.0000     -14.652575      -398.7168 
  11   2.0000     -14.652028      -398.7019 
  12   2.0000     -10.591727      -288.2156 
  13   2.0000     -10.591002      -288.1958 
  14   2.0000     -10.590379      -288.1789 
  15   2.0000     -10.590360      -288.1783 
  16   2.0000     -10.590308      -288.1769 
  17   2.0000     -10.589572      -288.1569 
  18   2.0000     -10.588786      -288.1355 
  19   2.0000     -10.588568      -288.1296 
  20   2.0000     -10.586841      -288.0826 
  21   2.0000     -10.586313      -288.0682 
  22   2.0000     -10.585676      -288.0509 
  23   2.0000     -10.585298      -288.0406 
  24   2.0000     -10.585264      -288.0397 
  25   2.0000     -10.585125      -288.0359 
  26   2.0000     -10.584808      -288.0273 
  27   2.0000     -10.584746      -288.0256 
  28   2.0000     -10.571819      -287.6738 
  29   2.0000     -10.570666      -287.6424 
  30   2.0000     -10.570532      -287.6388 
  31   2.0000     -10.570145      -287.6283 
  32   2.0000     -10.570033      -287.6252 
  33   2.0000     -10.569282      -287.6048 
  34   2.0000     -10.568879      -287.5938 
  35   2.0000     -10.568504      -287.5836 
  36   2.0000     -10.555038      -287.2172 
  37   2.0000     -10.554142      -287.1928 
  38   2.0000     -10.553568      -287.1772 
  39   2.0000     -10.553564      -287.1771 
  40   2.0000     -10.553326      -287.1706 
  41   2.0000     -10.553314      -287.1703 
  42   2.0000     -10.553309      -287.1701 
  43   2.0000     -10.553252      -287.1686 
  44   2.0000     -10.552808      -287.1565 
  45   2.0000     -10.552762      -287.1553 
  46   2.0000     -10.552574      -287.1501 
  47   2.0000     -10.552563      -287.1498 
  48   2.0000     -10.552354      -287.1442 
  49   2.0000     -10.552275      -287.1420 
  50   2.0000     -10.552260      -287.1416 
  51   2.0000     -10.552100      -287.1372 
  52   2.0000     -10.545909      -286.9688 
  53   2.0000     -10.545795      -286.9657 
  54   2.0000     -10.544333      -286.9259 
  55   2.0000     -10.544313      -286.9253 
  56   2.0000     -10.544263      -286.9240 
  57   2.0000     -10.544191      -286.9220 
  58   2.0000     -10.544048      -286.9181 
  59   2.0000     -10.543678      -286.9081 
  60   2.0000     -10.519787      -286.2580 
  61   2.0000     -10.518810      -286.2314 
  62   2.0000     -10.518599      -286.2256 
  63   2.0000     -10.518557      -286.2245 
  64   2.0000     -10.517994      -286.2092 
  65   2.0000     -10.517340      -286.1914 
  66   2.0000     -10.517053      -286.1836 
  67   2.0000     -10.516476      -286.1679 
  68   2.0000     -10.514809      -286.1225 
  69   2.0000     -10.513950      -286.0991 
  70   2.0000     -10.513857      -286.0966 
  71   2.0000     -10.513715      -286.0927 
  72   2.0000     -10.513071      -286.0752 
  73   2.0000     -10.512491      -286.0594 
  74   2.0000     -10.512351      -286.0556 
  75   2.0000     -10.511795      -286.0405 
  76   2.0000     -10.508479      -285.9502 
  77   2.0000     -10.508237      -285.9437 
  78   2.0000     -10.508203      -285.9427 
  79   2.0000     -10.508188      -285.9423 
  80   2.0000     -10.507371      -285.9201 
  81   2.0000     -10.507349      -285.9195 
  82   2.0000     -10.507335      -285.9191 
  83   2.0000     -10.507141      -285.9138 
[...]
freq.     232.43  E(vib)   ...       0.32 
freq.     237.16  E(vib)   ...       0.32 
freq.     239.33  E(vib)   ...       0.31 
freq.     241.49  E(vib)   ...       0.31 
freq.     265.25  E(vib)   ...       0.29 
freq.     266.86  E(vib)   ...       0.29 
freq.     268.64  E(vib)   ...       0.29 
freq.     270.70  E(vib)   ...       0.29 
freq.     274.09  E(vib)   ...       0.28 
freq.     279.41  E(vib)   ...       0.28 
freq.     282.10  E(vib)   ...       0.28 
freq.     285.41  E(vib)   ...       0.28 
freq.     295.11  E(vib)   ...       0.27 
freq.     295.89  E(vib)   ...       0.27 
freq.     297.45  E(vib)   ...       0.27 
freq.     299.93  E(vib)   ...       0.26 
freq.     303.30  E(vib)   ...       0.26 
freq.     304.84  E(vib)   ...       0.26 
freq.     307.02  E(vib)   ...       0.26 
freq.     309.44  E(vib)   ...       0.26 
freq.     312.57  E(vib)   ...       0.25 
freq.     316.38  E(vib)   ...       0.25 
freq.     319.35  E(vib)   ...       0.25 
freq.     390.93  E(vib)   ...       0.20 
freq.     394.32  E(vib)   ...       0.20 
freq.     396.69  E(vib)   ...       0.20 
freq.     398.65  E(vib)   ...       0.19 
freq.     407.41  E(vib)   ...       0.19 
freq.     409.06  E(vib)   ...       0.19 
freq.     410.19  E(vib)   ...       0.19 
freq.     411.83  E(vib)   ...       0.19 
freq.     427.33  E(vib)   ...       0.18 
freq.     429.41  E(vib)   ...       0.18 
freq.     440.76  E(vib)   ...       0.17 
freq.     444.61  E(vib)   ...       0.17 
freq.     445.89  E(vib)   ...       0.17 
freq.     448.74  E(vib)   ...       0.17 
freq.     452.54  E(vib)   ...       0.16 
freq.     453.30  E(vib)   ...       0.16 
freq.     458.54  E(vib)   ...       0.16 
freq.     458.96  E(vib)   ...       0.16 
freq.     461.97  E(vib)   ...       0.16 
freq.     463.78  E(vib)   ...       0.16 
freq.     493.33  E(vib)   ...       0.14 
freq.     496.84  E(vib)   ...       0.14 
freq.     499.74  E(vib)   ...       0.14 
freq.     501.22  E(vib)   ...       0.14 
freq.     508.84  E(vib)   ...       0.14 
freq.     509.21  E(vib)   ...       0.14 
freq.     514.36  E(vib)   ...       0.13 
freq.     516.93  E(vib)   ...       0.13 
freq.     565.73  E(vib)   ...       0.11 
freq.     567.80  E(vib)   ...       0.11 
freq.     568.83  E(vib)   ...       0.11 
freq.     569.29  E(vib)   ...       0.11 
freq.     570.32  E(vib)   ...       0.11 
freq.     571.24  E(vib)   ...       0.11 
freq.     571.30  E(vib)   ...       0.11 
freq.     572.86  E(vib)   ...       0.11 
freq.     576.27  E(vib)   ...       0.11 
freq.     580.98  E(vib)   ...       0.11 
freq.     582.53  E(vib)   ...       0.11 
freq.     582.97  E(vib)   ...       0.11 
freq.     583.34  E(vib)   ...       0.11 
freq.     587.42  E(vib)   ...       0.10 
freq.     588.12  E(vib)   ...       0.10 
freq.     589.90  E(vib)   ...       0.10 
freq.     590.48  E(vib)   ...       0.10 
freq.     596.41  E(vib)   ...       0.10 
freq.     598.53  E(vib)   ...       0.10 
freq.     598.76  E(vib)   ...       0.10 
freq.     620.70  E(vib)   ...       0.09 
freq.     621.06  E(vib)   ...       0.09 
freq.     621.68  E(vib)   ...       0.09 
freq.     622.03  E(vib)   ...       0.09 
freq.     674.60  E(vib)   ...       0.08 
freq.     675.91  E(vib)   ...       0.08 
freq.     676.50  E(vib)   ...       0.08 
freq.     676.64  E(vib)   ...       0.08 
freq.     677.93  E(vib)   ...       0.08 
freq.     678.59  E(vib)   ...       0.08 
freq.     678.69  E(vib)   ...       0.08 
freq.     680.72  E(vib)   ...       0.08 
freq.     693.82  E(vib)   ...       0.07 
freq.     694.07  E(vib)   ...       0.07 
freq.     694.21  E(vib)   ...       0.07 
freq.     694.56  E(vib)   ...       0.07 
freq.     703.47  E(vib)   ...       0.07 
freq.     704.25  E(vib)   ...       0.07 
freq.     704.36  E(vib)   ...       0.07 
freq.     705.02  E(vib)   ...       0.07 
freq.     705.67  E(vib)   ...       0.07 
freq.     708.41  E(vib)   ...       0.07 
freq.     713.85  E(vib)   ...       0.07 
freq.     714.48  E(vib)   ...       0.07 
freq.     714.67  E(vib)   ...       0.07 
freq.     714.95  E(vib)   ...       0.07 
freq.     717.60  E(vib)   ...       0.07 
freq.     718.49  E(vib)   ...       0.07 
freq.     755.53  E(vib)   ...       0.06 
freq.     755.68  E(vib)   ...       0.06 
freq.     756.27  E(vib)   ...       0.06 
freq.     756.58  E(vib)   ...       0.06 
freq.     803.35  E(vib)   ...       0.05 
freq.     804.48  E(vib)   ...       0.05 
freq.     804.83  E(vib)   ...       0.05 
freq.     807.47  E(vib)   ...       0.05 
freq.     827.99  E(vib)   ...       0.04 
freq.     831.37  E(vib)   ...       0.04 
freq.     833.22  E(vib)   ...       0.04 
freq.     833.34  E(vib)   ...       0.04 
freq.     834.65  E(vib)   ...       0.04 
freq.     834.89  E(vib)   ...       0.04 
freq.     835.03  E(vib)   ...       0.04 
freq.     835.67  E(vib)   ...       0.04 
freq.     850.07  E(vib)   ...       0.04 
freq.     850.27  E(vib)   ...       0.04 
freq.     850.38  E(vib)   ...       0.04 
freq.     850.47  E(vib)   ...       0.04 
freq.     882.53  E(vib)   ...       0.04 
freq.     883.43  E(vib)   ...       0.04 
freq.     883.54  E(vib)   ...       0.04 
freq.     886.58  E(vib)   ...       0.04 
freq.     923.43  E(vib)   ...       0.03 
freq.     929.13  E(vib)   ...       0.03 
freq.     930.77  E(vib)   ...       0.03 
freq.     932.41  E(vib)   ...       0.03 
freq.     932.80  E(vib)   ...       0.03 
freq.     934.26  E(vib)   ...       0.03 
freq.     936.69  E(vib)   ...       0.03 
freq.     936.90  E(vib)   ...       0.03 
freq.     955.63  E(vib)   ...       0.03 
freq.     956.10  E(vib)   ...       0.03 
freq.     956.25  E(vib)   ...       0.03 
freq.     956.33  E(vib)   ...       0.03 
freq.     960.05  E(vib)   ...       0.03 
freq.     964.17  E(vib)   ...       0.03 
freq.     964.73  E(vib)   ...       0.03 
freq.     964.83  E(vib)   ...       0.03 
freq.     967.27  E(vib)   ...       0.03 
freq.     967.29  E(vib)   ...       0.03 
freq.     968.77  E(vib)   ...       0.03 
freq.     970.57  E(vib)   ...       0.03 
freq.     993.33  E(vib)   ...       0.02 
freq.     993.61  E(vib)   ...       0.02 
freq.     993.73  E(vib)   ...       0.02 
freq.     994.88  E(vib)   ...       0.02 
freq.    1015.05  E(vib)   ...       0.02 
freq.    1015.18  E(vib)   ...       0.02 
freq.    1015.25  E(vib)   ...       0.02 
freq.    1015.51  E(vib)   ...       0.02 
freq.    1033.05  E(vib)   ...       0.02 
freq.    1033.42  E(vib)   ...       0.02 
freq.    1033.71  E(vib)   ...       0.02 
freq.    1034.28  E(vib)   ...       0.02 
freq.    1034.61  E(vib)   ...       0.02 
freq.    1034.95  E(vib)   ...       0.02 
freq.    1035.11  E(vib)   ...       0.02 
freq.    1035.42  E(vib)   ...       0.02 
freq.    1037.75  E(vib)   ...       0.02 
freq.    1037.88  E(vib)   ...       0.02 
freq.    1037.91  E(vib)   ...       0.02 
freq.    1038.07  E(vib)   ...       0.02 
freq.    1047.67  E(vib)   ...       0.02 
freq.    1048.01  E(vib)   ...       0.02 
freq.    1050.33  E(vib)   ...       0.02 
freq.    1050.66  E(vib)   ...       0.02 
freq.    1050.88  E(vib)   ...       0.02 
freq.    1051.09  E(vib)   ...       0.02 
freq.    1052.98  E(vib)   ...       0.02 
freq.    1054.31  E(vib)   ...       0.02 
freq.    1099.86  E(vib)   ...       0.02 
freq.    1099.89  E(vib)   ...       0.02 
freq.    1099.98  E(vib)   ...       0.02 
freq.    1100.89  E(vib)   ...       0.02 
freq.    1101.72  E(vib)   ...       0.02 
freq.    1101.94  E(vib)   ...       0.02 
freq.    1104.90  E(vib)   ...       0.02 
freq.    1106.43  E(vib)   ...       0.02 
freq.    1117.20  E(vib)   ...       0.01 
freq.    1117.38  E(vib)   ...       0.01 
freq.    1117.54  E(vib)   ...       0.01 
freq.    1118.35  E(vib)   ...       0.01 
freq.    1143.70  E(vib)   ...       0.01 
freq.    1143.74  E(vib)   ...       0.01 
freq.    1143.89  E(vib)   ...       0.01 
freq.    1144.01  E(vib)   ...       0.01 
freq.    1144.21  E(vib)   ...       0.01 
freq.    1144.39  E(vib)   ...       0.01 
freq.    1145.93  E(vib)   ...       0.01 
freq.    1146.26  E(vib)   ...       0.01 
freq.    1177.14  E(vib)   ...       0.01 
freq.    1177.17  E(vib)   ...       0.01 
freq.    1177.22  E(vib)   ...       0.01 
freq.    1177.35  E(vib)   ...       0.01 
freq.    1204.30  E(vib)   ...       0.01 
freq.    1204.60  E(vib)   ...       0.01 
freq.    1204.71  E(vib)   ...       0.01 
freq.    1205.15  E(vib)   ...       0.01 
freq.    1210.61  E(vib)   ...       0.01 
freq.    1211.22  E(vib)   ...       0.01 
freq.    1212.27  E(vib)   ...       0.01 
freq.    1212.29  E(vib)   ...       0.01 
freq.    1212.49  E(vib)   ...       0.01 
freq.    1213.37  E(vib)   ...       0.01 
freq.    1216.93  E(vib)   ...       0.01 
freq.    1217.04  E(vib)   ...       0.01 
freq.    1222.27  E(vib)   ...       0.01 
freq.    1222.91  E(vib)   ...       0.01 
freq.    1223.23  E(vib)   ...       0.01 
freq.    1224.00  E(vib)   ...       0.01 
freq.    1325.33  E(vib)   ...       0.01 
freq.    1326.58  E(vib)   ...       0.01 
freq.    1327.89  E(vib)   ...       0.01 
freq.    1328.12  E(vib)   ...       0.01 
freq.    1328.34  E(vib)   ...       0.01 
freq.    1329.83  E(vib)   ...       0.01 
freq.    1331.75  E(vib)   ...       0.01 
freq.    1332.26  E(vib)   ...       0.01 
freq.    1341.78  E(vib)   ...       0.01 
freq.    1341.96  E(vib)   ...       0.01 
freq.    1342.32  E(vib)   ...       0.01 
freq.    1343.32  E(vib)   ...       0.01 
freq.    1369.31  E(vib)   ...       0.01 
freq.    1369.51  E(vib)   ...       0.01 
freq.    1369.76  E(vib)   ...       0.01 
freq.    1370.10  E(vib)   ...       0.01 
freq.    1370.18  E(vib)   ...       0.01 
freq.    1370.92  E(vib)   ...       0.01 
freq.    1371.28  E(vib)   ...       0.01 
freq.    1371.78  E(vib)   ...       0.01 
freq.    1372.80  E(vib)   ...       0.01 
freq.    1373.65  E(vib)   ...       0.01 
freq.    1373.97  E(vib)   ...       0.01 
freq.    1375.16  E(vib)   ...       0.01 
freq.    1381.83  E(vib)   ...       0.01 
freq.    1382.32  E(vib)   ...       0.01 
freq.    1383.01  E(vib)   ...       0.01 
freq.    1384.93  E(vib)   ...       0.00 
freq.    1454.85  E(vib)   ...       0.00 
freq.    1455.16  E(vib)   ...       0.00 
freq.    1455.24  E(vib)   ...       0.00 
freq.    1455.60  E(vib)   ...       0.00 
freq.    1458.82  E(vib)   ...       0.00 
freq.    1459.31  E(vib)   ...       0.00 
freq.    1459.64  E(vib)   ...       0.00 
freq.    1460.86  E(vib)   ...       0.00 
freq.    1470.90  E(vib)   ...       0.00 
freq.    1471.48  E(vib)   ...       0.00 
freq.    1471.97  E(vib)   ...       0.00 
freq.    1473.01  E(vib)   ...       0.00 
freq.    1484.98  E(vib)   ...       0.00 
freq.    1485.21  E(vib)   ...       0.00 
freq.    1485.62  E(vib)   ...       0.00 
freq.    1486.61  E(vib)   ...       0.00 
freq.    1532.97  E(vib)   ...       0.00 
freq.    1533.84  E(vib)   ...       0.00 
freq.    1534.47  E(vib)   ...       0.00 
freq.    1534.83  E(vib)   ...       0.00 
freq.    1535.38  E(vib)   ...       0.00 
freq.    1536.12  E(vib)   ...       0.00 
freq.    1536.96  E(vib)   ...       0.00 
freq.    1538.51  E(vib)   ...       0.00 
freq.    1638.48  E(vib)   ...       0.00 
freq.    1638.89  E(vib)   ...       0.00 
freq.    1639.45  E(vib)   ...       0.00 
freq.    1640.07  E(vib)   ...       0.00 
freq.    1640.95  E(vib)   ...       0.00 
freq.    1641.14  E(vib)   ...       0.00 
freq.    1641.88  E(vib)   ...       0.00 
freq.    1642.45  E(vib)   ...       0.00 
freq.    1643.39  E(vib)   ...       0.00 
freq.    1643.96  E(vib)   ...       0.00 
freq.    1644.26  E(vib)   ...       0.00 
freq.    1645.24  E(vib)   ...       0.00 
freq.    1653.98  E(vib)   ...       0.00 
freq.    1654.26  E(vib)   ...       0.00 
freq.    1654.56  E(vib)   ...       0.00 
freq.    1655.18  E(vib)   ...       0.00 
freq.    1678.65  E(vib)   ...       0.00 
freq.    1679.48  E(vib)   ...       0.00 
freq.    1680.17  E(vib)   ...       0.00 
freq.    1681.20  E(vib)   ...       0.00 
freq.    1681.78  E(vib)   ...       0.00 
freq.    1682.30  E(vib)   ...       0.00 
freq.    1682.35  E(vib)   ...       0.00 
freq.    1683.60  E(vib)   ...       0.00 
freq.    2339.41  E(vib)   ...       0.00 
freq.    2342.47  E(vib)   ...       0.00 
freq.    2342.75  E(vib)   ...       0.00 
freq.    2343.72  E(vib)   ...       0.00 
freq.    2348.17  E(vib)   ...       0.00 
freq.    2348.64  E(vib)   ...       0.00 
freq.    2349.13  E(vib)   ...       0.00 
freq.    2351.80  E(vib)   ...       0.00 
freq.    3225.98  E(vib)   ...       0.00 
freq.    3226.91  E(vib)   ...       0.00 
freq.    3227.47  E(vib)   ...       0.00 
freq.    3228.49  E(vib)   ...       0.00 
freq.    3228.50  E(vib)   ...       0.00 
freq.    3228.57  E(vib)   ...       0.00 
freq.    3229.00  E(vib)   ...       0.00 
freq.    3229.18  E(vib)   ...       0.00 
freq.    3229.29  E(vib)   ...       0.00 
freq.    3229.60  E(vib)   ...       0.00 
freq.    3229.87  E(vib)   ...       0.00 
freq.    3230.15  E(vib)   ...       0.00 
freq.    3231.11  E(vib)   ...       0.00 
freq.    3231.13  E(vib)   ...       0.00 
freq.    3231.60  E(vib)   ...       0.00 
freq.    3231.72  E(vib)   ...       0.00 
freq.    3232.04  E(vib)   ...       0.00 
freq.    3232.28  E(vib)   ...       0.00 
freq.    3233.13  E(vib)   ...       0.00 
freq.    3236.57  E(vib)   ...       0.00 
freq.    3236.99  E(vib)   ...       0.00 
freq.    3237.26  E(vib)   ...       0.00 
freq.    3237.84  E(vib)   ...       0.00 
freq.    3238.49  E(vib)   ...       0.00 
freq.    3238.88  E(vib)   ...       0.00 
freq.    3240.65  E(vib)   ...       0.00 
freq.    3241.68  E(vib)   ...       0.00 
freq.    3242.74  E(vib)   ...       0.00 
freq.    3243.22  E(vib)   ...       0.00 
freq.    3243.55  E(vib)   ...       0.00 
freq.    3244.00  E(vib)   ...       0.00 
freq.    3244.14  E(vib)   ...       0.00 
freq.    3247.10  E(vib)   ...       0.00 
freq.    3247.73  E(vib)   ...       0.00 
freq.    3247.78  E(vib)   ...       0.00 
freq.    3248.12  E(vib)   ...       0.00 
freq.    3248.56  E(vib)   ...       0.00 
freq.    3248.74  E(vib)   ...       0.00 
freq.    3249.06  E(vib)   ...       0.00 
freq.    3249.13  E(vib)   ...       0.00 
freq.    3251.05  E(vib)   ...       0.00 
freq.    3251.92  E(vib)   ...       0.00 
freq.    3252.46  E(vib)   ...       0.00 
freq.    3253.48  E(vib)   ...       0.00 

------------
INNER ENERGY
------------

The inner energy is: U= E(el) + E(ZPE) + E(vib) + E(rot) + E(trans)
    E(el)   - is the total energy from the electronic structure calculation
              = E(kin-el) + E(nuc-el) + E(el-el) + E(nuc-nuc)
    E(ZPE)  - the the zero temperature vibrational energy from the frequency calculation
    E(vib)  - the the finite temperature correction to E(ZPE) due to population
              of excited vibrational states
    E(rot)  - is the rotational thermal energy
    E(trans)- is the translational thermal energy

Summary of contributions to the inner energy U:
Electronic energy                ...  -3827.38837570 Eh
Zero point energy                ...      1.01316065 Eh     635.77 kcal/mol
Thermal vibrational correction   ...      0.07050447 Eh      44.24 kcal/mol
Thermal rotational correction    ...      0.00141627 Eh       0.89 kcal/mol
Thermal translational correction ...      0.00141627 Eh       0.89 kcal/mol
-----------------------------------------------------------------------
Total thermal energy                  -3826.30187804 Eh


Summary of corrections to the electronic energy:
(perhaps to be used in another calculation)
Total thermal correction                  0.07333701 Eh      46.02 kcal/mol
Non-thermal (ZPE) correction              1.01316065 Eh     635.77 kcal/mol
-----------------------------------------------------------------------
Total correction                          1.08649766 Eh     681.79 kcal/mol


--------
ENTHALPY
--------

The enthalpy is H = U + kB*T
                kB is Boltzmann's constant
Total free energy                 ...  -3826.30187804 Eh 
Thermal Enthalpy correction       ...      0.00094421 Eh       0.59 kcal/mol
-----------------------------------------------------------------------
Total Enthalpy                    ...  -3826.30093383 Eh


Vibrational entropy computed according to the QRRHO of S. Grimme
Chem.Eur.J. 2012 18 9955


-------
ENTROPY
-------

The entropy contributions are T*S = T*(S(el)+S(vib)+S(rot)+S(trans)
     S(el)   - electronic entropy
     S(vib)  - vibrational entropy
     S(rot)  - rotational entropy
     S(trans)- translational entropy
The entropies will be listed as mutliplied by the temperature to get
units of energy

Electronic entropy                ...      0.00000000 Eh      0.00 kcal/mol
Vibrational entropy               ...      0.12919857 Eh     81.07 kcal/mol
Rotational entropy                ...      0.01941471 Eh     12.18 kcal/mol
Translational entropy             ...      0.02254479 Eh     14.15 kcal/mol
-----------------------------------------------------------------------
Final entropy term                ...      0.17115807 Eh    107.40 kcal/mol


CAUTION: The rotational entropy is not quite correctly treated here
         because it includes a symmetry number that is not yet correctly
         implemented in ORCA!
For a nonlinear molecule the correct rotational entropy is:
    S(rot) = R*(ln(qrot/sn)+1.5)
    R    = 8.31441 J/mol/K = 1.987191683e-3 kcal/mol/K
    qrot = 569974363.7711834
    sn is the rotational symmetry number. We have assumed 3 here
       if it is different for your molecule then you should correct
       the printed rotational entropy by manually evaluating the equation
       as given above

For convenience we print out the resulting values for sn=1 - 12:
 sn= 1  qrot/sn= 569974363.7712 T*S(rot)=    12.83 kcal/mol T*S(tot)=   108.05 kcal/mol
 sn= 2  qrot/sn= 284987181.8856 T*S(rot)=    12.42 kcal/mol T*S(tot)=   107.64 kcal/mol
 sn= 3  qrot/sn= 189991454.5904 T*S(rot)=    12.18 kcal/mol T*S(tot)=   107.40 kcal/mol
 sn= 4  qrot/sn= 142493590.9428 T*S(rot)=    12.01 kcal/mol T*S(tot)=   107.23 kcal/mol
 sn= 5  qrot/sn= 113994872.7542 T*S(rot)=    11.88 kcal/mol T*S(tot)=   107.10 kcal/mol
 sn= 6  qrot/sn= 94995727.2952 T*S(rot)=    11.77 kcal/mol T*S(tot)=   106.99 kcal/mol
 sn= 7  qrot/sn= 81424909.1102 T*S(rot)=    11.68 kcal/mol T*S(tot)=   106.90 kcal/mol
 sn= 8  qrot/sn= 71246795.4714 T*S(rot)=    11.60 kcal/mol T*S(tot)=   106.82 kcal/mol
 sn= 9  qrot/sn= 63330484.8635 T*S(rot)=    11.53 kcal/mol T*S(tot)=   106.75 kcal/mol
 sn=10  qrot/sn= 56997436.3771 T*S(rot)=    11.47 kcal/mol T*S(tot)=   106.69 kcal/mol
 sn=11  qrot/sn= 51815851.2519 T*S(rot)=    11.41 kcal/mol T*S(tot)=   106.63 kcal/mol
 sn=12  qrot/sn= 47497863.6476 T*S(rot)=    11.36 kcal/mol T*S(tot)=   106.58 kcal/mol


-------------------
GIBBS FREE ENTHALPY
-------------------

The Gibbs free enthalpy is G = H - T*S

Total enthalpy                    ...  -3826.30093383 Eh 
Total entropy correction          ...     -0.17115807 Eh   -107.40 kcal/mol
-----------------------------------------------------------------------
Final Gibbs free enthalpy         ...  -3826.47209190 Eh

For completeness - the Gibbs free enthalpy minus the electronic energy
G-E(el)                           ...      0.91628381 Eh    574.98 kcal/mol


Timings for individual modules:

Sum of individual times         ...    33747.889 sec (= 562.465 min)
GTO integral calculation        ...        6.410 sec (=   0.107 min)   0.0 %
SCF iterations                  ...      494.165 sec (=   8.236 min)   1.5 %
Analytical frequency calculation...    33247.315 sec (= 554.122 min)  98.5 %
                             ****ORCA TERMINATED NORMALLY****
TOTAL RUN TIME: 0 days 9 hours 22 minutes 40 seconds 326 msec
