
                                 *****************
                                 * O   R   C   A *
                                 *****************

           --- An Ab Initio, DFT and Semiempirical electronic structure package ---

                  #######################################################
                  #                        -***-                        #
                  #  Department of molecular theory and spectroscopy    #
                  #              Directorship: Frank Neese              #
                  # Max Planck Institute for Chemical Energy Conversion #
                  #                  D-45470 Muelheim/Ruhr              #
                  #                       Germany                       #
                  #                                                     #
                  #                  All rights reserved                #
                  #                        -***-                        #
                  #######################################################


                         Program Version 4.0.1.2 - RELEASE -


 With contributions from (in alphabetic order):
   Daniel Aravena         : Magnetic Properties
   Michael Atanasov       : Ab Initio Ligand Field Theory
   Ute Becker             : Parallelization
   Martin Brehm           : Molecular dynamics
   Dmytro Bykov           : SCF Hessian
   Vijay G. Chilkuri      : MRCI spin determinant printing
   Dipayan Datta          : RHF DLPNO-CCSD density
   Achintya Kumar Dutta   : EOM-CC, STEOM-CC
   Dmitry Ganyushin       : Spin-Orbit,Spin-Spin,Magnetic field MRCI
   Yang Guo               : DLPNO-NEVPT2, CIM, IAO-localization
   Andreas Hansen         : Spin unrestricted coupled pair/coupled cluster methods
   Lee Huntington         : MR-EOM, pCC
   Robert Izsak           : Overlap fitted RIJCOSX, COSX-SCS-MP3, EOM
   Christian Kollmar      : KDIIS, OOCD, Brueckner-CCSD(T), CCSD density
   Simone Kossmann        : Meta GGA functionals, TD-DFT gradient, OOMP2, MP2 Hessian
   Martin Krupicka        : AUTO-CI
   Dagmar Lenk            : GEPOL surface
   Dimitrios Liakos       : Extrapolation schemes; parallel MDCI
   Dimitrios Manganas     : ROCIS; embedding schemes
   Dimitrios Pantazis     : SARC Basis sets
   Taras Petrenko         : DFT Hessian,TD-DFT gradient, ASA, ECA, R-Raman, ABS, FL, XAS/XES, NRVS
   Peter Pinski           : DLPNO-MP2
   Christoph Reimann      : Effective Core Potentials
   Marius Retegan         : Local ZFS, SOC
   Christoph Riplinger    : Optimizer, TS searches, QM/MM, DLPNO-CCSD(T), (RO)-DLPNO pert. Triples
   Tobias Risthaus        : Range-separated hybrids, TD-DFT gradient, RPA, STAB
   Michael Roemelt        : Restricted open shell CIS
   Masaaki Saitow         : Open-shell DLPNO
   Barbara Sandhoefer     : DKH picture change effects
   Kantharuban Sivalingam : CASSCF convergence, NEVPT2, FIC-MRCI
   Georgi Stoychev        : AutoAux
   Boris Wezisla          : Elementary symmetry handling
   Frank Wennmohs         : Technical directorship


 We gratefully acknowledge several colleagues who have allowed us to
 interface, adapt or use parts of their codes:
   Stefan Grimme, W. Hujo, H. Kruse,             : VdW corrections, initial TS optimization,
                  C. Bannwarth                     DFT functionals, gCP, sTDA/sTD-DF
   Ed Valeev                                     : LibInt (2-el integral package), F12 methods
   Garnet Chan, S. Sharma, J. Yang, R. Olivares  : DMRG
   Ulf Ekstrom                                   : XCFun DFT Library
   Mihaly Kallay                                 : mrcc  (arbitrary order and MRCC methods)
   Andreas Klamt, Michael Diedenhofen            : otool_cosmo (COSMO solvation model)
   Jiri Pittner, Ondrej Demel                    : Mk-CCSD
   Frank Weinhold                                : gennbo (NPA and NBO analysis)
   Christopher J. Cramer and Donald G. Truhlar   : smd solvation model


 Your calculation uses the libint2 library for the computation of 2-el integrals
 For citations please refer to: http://libint.valeyev.net

 This ORCA versions uses:
   CBLAS   interface :  Fast vector & matrix operations
   LAPACKE interface :  Fast linear algebra routines
   SCALAPACK package :  Parallel linear algebra routines


Your calculation utilizes the atom-pairwise dispersion correction
with the Becke-Johnson damping scheme (D3BJ)
Cite in your paper:
S.Grimme, S.Ehrlich, L.Goerigk, J Comput Chem, (2011), 32, 1456–1465 
S.Grimme, J.Antony, S.Ehrlich and H.Krieg, J.Chem.Phys., 132, (2010), 154104 
   

Your calculation utilizes the basis: def2-SVP
   F. Weigend and R. Ahlrichs, Phys. Chem. Chem. Phys. 7, 3297 (2005).

Your calculation utilizes the auxiliary basis: def2/J
   F. Weigend, Phys. Chem. Chem. Phys. 8, 1057 (2006).

cite the ECPs for Pd [Def2-ECP] as follows:
Ce-Yb(ecp-28): M. Dolg, H. Stoll, H.Preuss, J. Chem. Phys., 1989, 90, 1730-1734.
Y-Cd(ecp-28), Hf-Hg(ecp-46): D. Andrae,U. Haeussermann, M. Dolg, H. Stoll, H. Preuss, Theor. Chim. Acta, 1990, 77, 123-141.
In-Sb(ecp-28), Tl-Bi(ecp-46): B. Metz, H. Stoll, M. Dolg, J. Chem. Phys., 2000, 113, 2563-2569.
Te-Xe(ecp-28), Po-Rn(ecp-46): K. A. Peterson, D. Figgen, E. Goll, H. Stoll, M. Dolg, J. Chem. Phys., 2003, 119, 11113-11123.
Rb(ecp-28), Cs(ecp-46): T. Leininger, A. Nicklass, W. Kuechle, H. Stoll, M. Dolg, A. Bergner, Chem. Phys. Lett., 1996, 255, 274-280.
Sr(ecp-28), Ba(ecp-46): M. Kaupp, P. V. Schleyer, H. Stoll and H. Preuss, J. Chem. Phys., 1991, 94, 1360-1366.
La(ecp-46): M. Dolg, H. Stoll, A. Savin, H. Preuss, Theor. Chim. Acta, 1989, 75, 173-194.
Lu(ecp-28): X. Cao, M. Dolg, J. Chem. Phys., 2001, 115, 7348-7355.

ECP parameters for Pd [Def2-ECP] have been obtained from:
TURBOMOLE (7.0.2)

================================================================================
                                        WARNINGS
                       Please study these warnings very carefully!
================================================================================

Warning: TCutStore was < 0. Adjusted to Thresh (uncritical)

INFO   : the flag for use of LIBINT has been found!

================================================================================
                                       INPUT FILE
================================================================================
NAME = /scratch/141999.1.multiway.q/cage_quinone_sp.inp
|  1> ! Freq PBE0 D3BJ def2-SVP RIJCOSX def2/J PAL8
|  2> %maxcore 4000
|  3> *xyz 4 1
|  4> H	-1.318155	4.603388	0.799433
|  5> H	-1.192189	7.063335	0.758546
|  6> H	3.066565	4.360227	1.226682
|  7> H	3.192139	6.821808	1.195865
|  8> O	1.094031	8.369072	0.944753
|  9> O	0.785127	3.055198	1.019931
| 10> C	-0.287950	6.456157	0.865509
| 11> C	-0.355860	5.115138	0.886587
| 12> C	0.859366	4.279843	1.009903
| 13> C	2.163013	4.968571	1.120888
| 14> C	2.230641	6.309606	1.104280
| 15> C	1.016266	7.145266	0.971262
| 16> H	2.361592	1.241764	1.487287
| 17> H	1.568351	9.579674	-1.211856
| 18> H	1.191205	9.967321	2.715352
| 19> H	1.475364	14.113861	2.560810
| 20> H	0.868969	14.324749	4.979795
| 21> H	0.425756	12.242989	6.306875
| 22> H	0.098229	8.560357	8.508950
| 23> H	-0.159633	6.471232	9.879754
| 24> H	-0.217428	4.261921	8.682017
| 25> H	-0.505540	0.593131	7.088414
| 26> H	0.038812	1.944057	3.021097
| 27> H	-0.649721	-1.749998	6.198272
| 28> H	-0.445469	-2.123956	3.736480
| 29> C	0.775828	10.932376	4.615914
| 30> C	0.691873	12.185535	5.249681
| 31> C	0.936638	13.339053	4.515585
| 32> C	1.272390	13.231824	3.171639
| 33> N	1.361966	12.034465	2.572480
| 34> C	1.116443	10.913419	3.257057
| 35> C	0.547259	9.709310	5.296750
| 36> C	0.375631	8.650350	5.870412
| 37> C	-0.103145	5.197642	8.133528
| 38> C	-0.069575	6.419506	8.792443
| 39> C	0.072672	7.576410	8.038298
| 40> C	0.191687	7.457745	6.641883
| 41> N	0.154255	6.289621	5.994278
| 42> C	0.002982	5.185219	6.730405
| 43> C	-0.060406	3.921184	6.057628
| 44> C	-0.133943	2.801720	5.585877
| 45> C	-0.127336	1.155450	3.759051
| 46> C	-0.230061	1.463252	5.122714
| 47> C	-0.420553	0.394152	6.017993
| 48> C	-0.500003	-0.902229	5.527955
| 49> C	-0.389354	-1.119095	4.160535
| 50> N	-0.206352	-0.101348	3.306004
| 51> H	0.664542	1.475567	-0.756802
| 52> H	3.374680	13.316428	-1.501238
| 53> H	4.216996	12.824538	-3.799029
| 54> H	3.721206	10.585231	-4.821631
| 55> H	2.181673	7.185175	-6.764395
| 56> H	1.980879	4.982808	-7.961316
| 57> H	1.630880	2.909888	-6.587133
| 58> H	1.026481	-0.709075	-4.466940
| 59> H	0.498917	-2.801567	-3.186827
| 60> H	0.059465	-2.639732	-0.728850
| 61> C	3.160832	12.361175	-1.985352
| 62> C	3.630693	12.077424	-3.261340
| 63> C	3.352326	10.840114	-3.826437
| 64> C	2.594756	9.901637	-3.100468
| 65> N	2.434262	11.469104	-1.294730
| 66> C	2.150378	10.273379	-1.824070
| 67> C	2.307325	8.615840	-3.630199
| 68> C	2.115713	7.521681	-4.127215
| 69> C	1.944523	6.271952	-4.809816
| 70> C	2.024469	6.256474	-6.214370
| 71> C	1.912018	5.038482	-6.872597
| 72> C	1.718289	3.890284	-6.116503
| 73> N	1.738418	5.177905	-4.071998
| 74> C	1.624227	4.014044	-4.718613
| 75> C	1.382668	2.832968	-3.945142
| 76> C	1.159568	1.782308	-3.373615
| 77> C	0.631694	0.548679	-1.335183
| 78> C	0.881309	0.557976	-2.713967
| 79> C	0.831557	-0.673323	-3.393192
| 80> C	0.542204	-1.832855	-2.685426
| 81> C	0.299581	-1.753268	-1.319656
| 82> N	0.348540	-0.578052	-0.674355
| 83> Pd	1.887620	11.815565	0.630038
| 84> Pd	0.039481	-0.405924	1.315559
| 85> H	8.669474	6.604054	1.868170
| 86> C	4.999593	1.293862	1.771280
| 87> H	4.234197	-3.276183	2.049430
| 88> H	5.797949	-1.316512	2.061853
| 89> H	1.782397	-2.871100	1.757021
| 90> C	2.493977	-2.042575	1.768974
| 91> C	3.857102	-2.258930	1.928659
| 92> C	4.722846	-1.172213	1.935222
| 93> C	4.199745	0.123798	1.780536
| 94> N	1.999831	-0.803347	1.619261
| 95> C	2.814379	0.255456	1.624146
| 96> C	5.640286	2.326920	1.759981
| 97> H	8.288613	2.307541	1.903679
| 98> H	9.763480	4.340828	1.955063
| 99> N	5.882584	4.685838	1.710682
|100> C	6.474310	3.488108	1.772139
|101> C	7.866658	3.312493	1.857547
|102> C	8.677595	4.438492	1.887064
|103> C	8.076692	5.689219	1.838211
|104> C	6.674530	5.761887	1.750202
|105> C	6.077622	7.062772	1.704280
|106> C	5.700593	8.219928	1.674132
|107> H	7.365596	10.290327	2.130492
|108> H	6.736458	12.713119	1.954571
|109> H	4.389376	13.310561	1.330069
|110> H	3.274567	9.314352	1.111663
|111> C	4.080444	10.029670	1.297376
|112> C	5.373995	9.600938	1.622492
|113> C	6.348788	10.586637	1.865507
|114> C	6.002970	11.927334	1.767618
|115> C	4.701460	12.267666	1.423513
|116> N	3.773110	11.327290	1.194381
|117> H	-1.373612	2.089130	0.831390
|118> H	-2.548490	-1.886105	1.117149
|119> H	-4.951773	-1.292256	0.764378
|120> H	-5.574598	1.120242	0.465581
|121> H	-7.844154	7.103816	-0.027363
|122> H	-6.339918	9.114885	-0.064883
|123> H	-6.785302	4.831095	0.174751
|124> H	-0.428237	10.165785	0.442101
|125> H	-2.214469	14.597543	-0.741302
|126> H	0.211736	14.221723	-0.251547
|127> H	-3.793459	12.654953	-0.631728
|128> C	-2.730830	12.522643	-0.417422
|129> C	-1.855926	13.600645	-0.478112
|130> C	-0.507093	13.400422	-0.209321
|131> N	-0.036118	12.184564	0.111935
|132> C	-0.860384	11.134202	0.173172
|133> C	-2.231766	11.250337	-0.085735
|134> C	-3.041094	10.088422	-0.002755
|135> C	-3.692697	9.064680	0.076122
|136> C	-6.178856	5.737465	0.166854
|137> C	-6.760323	6.993422	0.053609
|138> C	-5.932813	8.107603	0.033954
|139> C	-4.543385	7.915938	0.132986
|140> N	-3.971019	6.713756	0.262493
|141> C	-4.778718	5.648393	0.272877
|142> C	-4.202137	4.342405	0.393283
|143> C	-3.840119	3.184109	0.492636
|144> C	-2.858252	-0.849120	0.969595
|145> C	-4.191044	-0.509855	0.777223
|146> C	-4.533370	0.824827	0.611120
|147> C	-3.524742	1.806191	0.631335
|148> C	-2.203366	1.377187	0.813431
|149> N	-1.897315	0.086872	0.984835
|150> *
|151> 
|152>                          ****END OF INPUT****
================================================================================

                       ****************************
                       * Single Point Calculation *
                       ****************************

---------------------------------
CARTESIAN COORDINATES (ANGSTROEM)
---------------------------------
  H     -1.318155    4.603388    0.799433
  H     -1.192189    7.063335    0.758546
  H      3.066565    4.360227    1.226682
  H      3.192139    6.821808    1.195865
  O      1.094031    8.369072    0.944753
  O      0.785127    3.055198    1.019931
  C     -0.287950    6.456157    0.865509
  C     -0.355860    5.115138    0.886587
  C      0.859366    4.279843    1.009903
  C      2.163013    4.968571    1.120888
  C      2.230641    6.309606    1.104280
  C      1.016266    7.145266    0.971262
  H      2.361592    1.241764    1.487287
  H      1.568351    9.579674   -1.211856
  H      1.191205    9.967321    2.715352
  H      1.475364   14.113861    2.560810
  H      0.868969   14.324749    4.979795
  H      0.425756   12.242989    6.306875
  H      0.098229    8.560357    8.508950
  H     -0.159633    6.471232    9.879754
  H     -0.217428    4.261921    8.682017
  H     -0.505540    0.593131    7.088414
  H      0.038812    1.944057    3.021097
  H     -0.649721   -1.749998    6.198272
  H     -0.445469   -2.123956    3.736480
  C      0.775828   10.932376    4.615914
  C      0.691873   12.185535    5.249681
  C      0.936638   13.339053    4.515585
  C      1.272390   13.231824    3.171639
  N      1.361966   12.034465    2.572480
  C      1.116443   10.913419    3.257057
  C      0.547259    9.709310    5.296750
  C      0.375631    8.650350    5.870412
  C     -0.103145    5.197642    8.133528
  C     -0.069575    6.419506    8.792443
  C      0.072672    7.576410    8.038298
  C      0.191687    7.457745    6.641883
  N      0.154255    6.289621    5.994278
  C      0.002982    5.185219    6.730405
  C     -0.060406    3.921184    6.057628
  C     -0.133943    2.801720    5.585877
  C     -0.127336    1.155450    3.759051
  C     -0.230061    1.463252    5.122714
  C     -0.420553    0.394152    6.017993
  C     -0.500003   -0.902229    5.527955
  C     -0.389354   -1.119095    4.160535
  N     -0.206352   -0.101348    3.306004
  H      0.664542    1.475567   -0.756802
  H      3.374680   13.316428   -1.501238
  H      4.216996   12.824538   -3.799029
  H      3.721206   10.585231   -4.821631
  H      2.181673    7.185175   -6.764395
  H      1.980879    4.982808   -7.961316
  H      1.630880    2.909888   -6.587133
  H      1.026481   -0.709075   -4.466940
  H      0.498917   -2.801567   -3.186827
  H      0.059465   -2.639732   -0.728850
  C      3.160832   12.361175   -1.985352
  C      3.630693   12.077424   -3.261340
  C      3.352326   10.840114   -3.826437
  C      2.594756    9.901637   -3.100468
  N      2.434262   11.469104   -1.294730
  C      2.150378   10.273379   -1.824070
  C      2.307325    8.615840   -3.630199
  C      2.115713    7.521681   -4.127215
  C      1.944523    6.271952   -4.809816
  C      2.024469    6.256474   -6.214370
  C      1.912018    5.038482   -6.872597
  C      1.718289    3.890284   -6.116503
  N      1.738418    5.177905   -4.071998
  C      1.624227    4.014044   -4.718613
  C      1.382668    2.832968   -3.945142
  C      1.159568    1.782308   -3.373615
  C      0.631694    0.548679   -1.335183
  C      0.881309    0.557976   -2.713967
  C      0.831557   -0.673323   -3.393192
  C      0.542204   -1.832855   -2.685426
  C      0.299581   -1.753268   -1.319656
  N      0.348540   -0.578052   -0.674355
  Pd     1.887620   11.815565    0.630038
  Pd     0.039481   -0.405924    1.315559
  H      8.669474    6.604054    1.868170
  C      4.999593    1.293862    1.771280
  H      4.234197   -3.276183    2.049430
  H      5.797949   -1.316512    2.061853
  H      1.782397   -2.871100    1.757021
  C      2.493977   -2.042575    1.768974
  C      3.857102   -2.258930    1.928659
  C      4.722846   -1.172213    1.935222
  C      4.199745    0.123798    1.780536
  N      1.999831   -0.803347    1.619261
  C      2.814379    0.255456    1.624146
  C      5.640286    2.326920    1.759981
  H      8.288613    2.307541    1.903679
  H      9.763480    4.340828    1.955063
  N      5.882584    4.685838    1.710682
  C      6.474310    3.488108    1.772139
  C      7.866658    3.312493    1.857547
  C      8.677595    4.438492    1.887064
  C      8.076692    5.689219    1.838211
  C      6.674530    5.761887    1.750202
  C      6.077622    7.062772    1.704280
  C      5.700593    8.219928    1.674132
  H      7.365596   10.290327    2.130492
  H      6.736458   12.713119    1.954571
  H      4.389376   13.310561    1.330069
  H      3.274567    9.314352    1.111663
  C      4.080444   10.029670    1.297376
  C      5.373995    9.600938    1.622492
  C      6.348788   10.586637    1.865507
  C      6.002970   11.927334    1.767618
  C      4.701460   12.267666    1.423513
  N      3.773110   11.327290    1.194381
  H     -1.373612    2.089130    0.831390
  H     -2.548490   -1.886105    1.117149
  H     -4.951773   -1.292256    0.764378
  H     -5.574598    1.120242    0.465581
  H     -7.844154    7.103816   -0.027363
  H     -6.339918    9.114885   -0.064883
  H     -6.785302    4.831095    0.174751
  H     -0.428237   10.165785    0.442101
  H     -2.214469   14.597543   -0.741302
  H      0.211736   14.221723   -0.251547
  H     -3.793459   12.654953   -0.631728
  C     -2.730830   12.522643   -0.417422
  C     -1.855926   13.600645   -0.478112
  C     -0.507093   13.400422   -0.209321
  N     -0.036118   12.184564    0.111935
  C     -0.860384   11.134202    0.173172
  C     -2.231766   11.250337   -0.085735
  C     -3.041094   10.088422   -0.002755
  C     -3.692697    9.064680    0.076122
  C     -6.178856    5.737465    0.166854
  C     -6.760323    6.993422    0.053609
  C     -5.932813    8.107603    0.033954
  C     -4.543385    7.915938    0.132986
  N     -3.971019    6.713756    0.262493
  C     -4.778718    5.648393    0.272877
  C     -4.202137    4.342405    0.393283
  C     -3.840119    3.184109    0.492636
  C     -2.858252   -0.849120    0.969595
  C     -4.191044   -0.509855    0.777223
  C     -4.533370    0.824827    0.611120
  C     -3.524742    1.806191    0.631335
  C     -2.203366    1.377187    0.813431
  N     -1.897315    0.086872    0.984835

----------------------------
CARTESIAN COORDINATES (A.U.)
----------------------------
  NO LB      ZA    FRAG     MASS         X           Y           Z
   0 H     1.0000    0     1.008   -2.490952    8.699143    1.510709
   1 H     1.0000    0     1.008   -2.252911   13.347769    1.433444
   2 H     1.0000    0     1.008    5.794968    8.239635    2.318093
   3 H     1.0000    0     1.008    6.032268   12.891349    2.259857
   4 O     8.0000    0    15.999    2.067419   15.815254    1.785324
   5 O     8.0000    0    15.999    1.483675    5.773488    1.927390
   6 C     6.0000    0    12.011   -0.544147   12.200369    1.635575
   7 C     6.0000    0    12.011   -0.672478    9.666210    1.675407
   8 C     6.0000    0    12.011    1.623966    8.087731    1.908440
   9 C     6.0000    0    12.011    4.087502    9.389238    2.118171
  10 C     6.0000    0    12.011    4.215301   11.923427    2.086787
  11 C     6.0000    0    12.011    1.920464   13.502596    1.835419
  12 H     1.0000    0     1.008    4.462762    2.346594    2.810565
  13 H     1.0000    0     1.008    2.963754   18.102960   -2.290076
  14 H     1.0000    0     1.008    2.251051   18.835507    5.131272
  15 H     1.0000    0     1.008    2.788034   26.671332    4.839230
  16 H     1.0000    0     1.008    1.642113   27.069853    9.410449
  17 H     1.0000    0     1.008    0.804562   23.135896   11.918267
  18 H     1.0000    0     1.008    0.185626   16.176730   16.079585
  19 H     1.0000    0     1.008   -0.301663   12.228856   18.670029
  20 H     1.0000    0     1.008   -0.410879    8.053863   16.406634
  21 H     1.0000    0     1.008   -0.955332    1.120855   13.395161
  22 H     1.0000    0     1.008    0.073344    3.673735    5.709046
  23 H     1.0000    0     1.008   -1.227795   -3.307017   11.713037
  24 H     1.0000    0     1.008   -0.841814   -4.013695    7.060924
  25 C     6.0000    0    12.011    1.466102   20.659197    8.722813
  26 C     6.0000    0    12.011    1.307450   23.027324    9.920459
  27 C     6.0000    0    12.011    1.769989   25.207157    8.533219
  28 C     6.0000    0    12.011    2.404469   25.004524    5.993529
  29 N     7.0000    0    14.007    2.573743   22.741843    4.861283
  30 C     6.0000    0    12.011    2.109772   20.623373    6.154946
  31 C     6.0000    0    12.011    1.034170   18.347937   10.009407
  32 C     6.0000    0    12.011    0.709840   16.346792   11.093471
  33 C     6.0000    0    12.011   -0.194916    9.822120   15.370140
  34 C     6.0000    0    12.011   -0.131478   12.131108   16.615309
  35 C     6.0000    0    12.011    0.137330   14.317340   15.190182
  36 C     6.0000    0    12.011    0.362236   14.093096   12.551340
  37 N     7.0000    0    14.007    0.291500   11.885661   11.327544
  38 C     6.0000    0    12.011    0.005635    9.798644   12.718622
  39 C     6.0000    0    12.011   -0.114151    7.409964   11.447258
  40 C     6.0000    0    12.011   -0.253116    5.294484   10.555778
  41 C     6.0000    0    12.011   -0.240630    2.183484    7.103577
  42 C     6.0000    0    12.011   -0.434752    2.765146    9.680527
  43 C     6.0000    0    12.011   -0.794730    0.744839   11.372359
  44 C     6.0000    0    12.011   -0.944869   -1.704966   10.446321
  45 C     6.0000    0    12.011   -0.735772   -2.114783    7.862272
  46 N     7.0000    0    14.007   -0.389949   -0.191520    6.247442
  47 H     1.0000    0     1.008    1.255802    2.788418   -1.430149
  48 H     1.0000    0     1.008    6.377221   25.164402   -2.836929
  49 H     1.0000    0     1.008    7.968968   24.234865   -7.179124
  50 H     1.0000    0     1.008    7.032060   20.003188   -9.111562
  51 H     1.0000    0     1.008    4.122764   13.578013  -12.782854
  52 H     1.0000    0     1.008    3.743319    9.416142  -15.044707
  53 H     1.0000    0     1.008    3.081917    5.498891  -12.447877
  54 H     1.0000    0     1.008    1.939768   -1.339958   -8.441293
  55 H     1.0000    0     1.008    0.942816   -5.294194   -6.022230
  56 H     1.0000    0     1.008    0.112373   -4.988371   -1.377327
  57 C     6.0000    0    12.011    5.973107   23.359235   -3.751772
  58 C     6.0000    0    12.011    6.861015   22.823024   -6.163039
  59 C     6.0000    0    12.011    6.334978   20.484847   -7.230918
  60 C     6.0000    0    12.011    4.903378   18.711382   -5.859035
  61 N     7.0000    0    14.007    4.600089   21.673466   -2.446685
  62 C     6.0000    0    12.011    4.063626   19.413873   -3.446993
  63 C     6.0000    0    12.011    4.360212   16.281578   -6.860082
  64 C     6.0000    0    12.011    3.998118   14.213917   -7.799306
  65 C     6.0000    0    12.011    3.674616   11.852272   -9.089235
  66 C     6.0000    0    12.011    3.825692   11.823022  -11.743457
  67 C     6.0000    0    12.011    3.613190    9.521351  -12.987326
  68 C     6.0000    0    12.011    3.247096    7.351571  -11.558516
  69 N     7.0000    0    14.007    3.285134    9.784822   -7.694961
  70 C     6.0000    0    12.011    3.069344    7.585444   -8.916886
  71 C     6.0000    0    12.011    2.612864    5.353534   -7.455238
  72 C     6.0000    0    12.011    2.191266    3.368074   -6.375208
  73 C     6.0000    0    12.011    1.193729    1.036853   -2.523130
  74 C     6.0000    0    12.011    1.665433    1.054422   -5.128654
  75 C     6.0000    0    12.011    1.571415   -1.272396   -6.412204
  76 C     6.0000    0    12.011    1.024617   -3.463594   -5.074720
  77 C     6.0000    0    12.011    0.566126   -3.313196   -2.493788
  78 N     7.0000    0    14.007    0.658645   -1.092360   -1.274346
  79 Pd   18.0000*   0   106.400    3.567085   22.328182    1.190599
  80 Pd   18.0000*   0   106.400    0.074608   -0.767085    2.486046
  81 H     1.0000    0     1.008   16.382932   12.479853    3.530330
  82 C     6.0000    0    12.011    9.447862    2.445045    3.347234
  83 H     1.0000    0     1.008    8.001473   -6.191089    3.872861
  84 H     1.0000    0     1.008   10.956536   -2.487847    3.896337
  85 H     1.0000    0     1.008    3.368242   -5.425593    3.320289
  86 C     6.0000    0    12.011    4.712934   -3.859907    3.342876
  87 C     6.0000    0    12.011    7.288866   -4.268759    3.644637
  88 C     6.0000    0    12.011    8.924886   -2.215162    3.657040
  89 C     6.0000    0    12.011    7.936368    0.233944    3.364725
  90 N     7.0000    0    14.007    3.779133   -1.518106    3.059960
  91 C     6.0000    0    12.011    5.318406    0.482742    3.069191
  92 C     6.0000    0    12.011   10.658596    4.397242    3.325882
  93 H     1.0000    0     1.008   15.663209    4.360621    3.597432
  94 H     1.0000    0     1.008   18.450303    8.202976    3.694534
  95 N     7.0000    0    14.007   11.116473    8.854951    3.232720
  96 C     6.0000    0    12.011   12.234673    6.591569    3.348857
  97 C     6.0000    0    12.011   14.865829    6.259705    3.510255
  98 C     6.0000    0    12.011   16.398278    8.387534    3.566034
  99 C     6.0000    0    12.011   15.262736   10.751066    3.473715
 100 C     6.0000    0    12.011   12.613034   10.888388    3.307402
 101 C     6.0000    0    12.011   11.485041   13.346705    3.220622
 102 C     6.0000    0    12.011   10.772560   15.533413    3.163651
 103 H     1.0000    0     1.008   13.918959   19.445900    4.026046
 104 H     1.0000    0     1.008   12.730061   24.024313    3.693604
 105 H     1.0000    0     1.008    8.294719   25.153315    2.513466
 106 H     1.0000    0     1.008    6.188035   17.601574    2.100739
 107 C     6.0000    0    12.011    7.710922   18.953330    2.451685
 108 C     6.0000    0    12.011   10.155379   18.143143    3.066066
 109 C     6.0000    0    12.011   11.997471   20.005845    3.525297
 110 C     6.0000    0    12.011   11.343969   22.539395    3.340314
 111 C     6.0000    0    12.011    8.884472   23.182529    2.690050
 112 N     7.0000    0    14.007    7.130145   21.405476    2.257053
 113 H     1.0000    0     1.008   -2.595750    3.947884    1.571099
 114 H     1.0000    0     1.008   -4.815948   -3.564222    2.111106
 115 H     1.0000    0     1.008   -9.357495   -2.442010    1.444465
 116 H     1.0000    0     1.008  -10.534464    2.116951    0.879821
 117 H     1.0000    0     1.008  -14.823303   13.424267   -0.051709
 118 H     1.0000    0     1.008  -11.980709   17.224636   -0.122611
 119 H     1.0000    0     1.008  -12.822363    9.129446    0.330232
 120 H     1.0000    0     1.008   -0.809251   19.210550    0.835450
 121 H     1.0000    0     1.008   -4.184740   27.585358   -1.400858
 122 H     1.0000    0     1.008    0.400123   26.875162   -0.475355
 123 H     1.0000    0     1.008   -7.168599   23.914395   -1.193793
 124 C     6.0000    0    12.011   -5.160521   23.664366   -0.788813
 125 C     6.0000    0    12.011   -3.507192   25.701494   -0.903501
 126 C     6.0000    0    12.011   -0.958267   25.323128   -0.395559
 127 N     7.0000    0    14.007   -0.068253   23.025489    0.211526
 128 C     6.0000    0    12.011   -1.625890   21.040592    0.327248
 129 C     6.0000    0    12.011   -4.217427   21.260056   -0.162016
 130 C     6.0000    0    12.011   -5.746835   19.064355   -0.005206
 131 C     6.0000    0    12.011   -6.978186   17.129763    0.143850
 132 C     6.0000    0    12.011  -11.676346   10.842238    0.315308
 133 C     6.0000    0    12.011  -12.775159   13.215652    0.101306
 134 C     6.0000    0    12.011  -11.211392   15.321149    0.064164
 135 C     6.0000    0    12.011   -8.585753   14.958955    0.251307
 136 N     7.0000    0    14.007   -7.504138   12.687160    0.496040
 137 C     6.0000    0    12.011   -9.030468   10.673916    0.515663
 138 C     6.0000    0    12.011   -7.940888    8.205956    0.743197
 139 C     6.0000    0    12.011   -7.256773    6.017094    0.930947
 140 C     6.0000    0    12.011   -5.401314   -1.604604    1.832269
 141 C     6.0000    0    12.011   -7.919925   -0.963486    1.468739
 142 C     6.0000    0    12.011   -8.566828    1.558697    1.154849
 143 C     6.0000    0    12.011   -6.660797    3.413206    1.193050
 144 C     6.0000    0    12.011   -4.163758    2.602506    1.537162
 145 N     7.0000    0    14.007   -3.585406    0.164164    1.861068
* core charge reduced due to ECP

--------------------------------
INTERNAL COORDINATES (ANGSTROEM)
--------------------------------
 H      0   0   0     0.000000000000     0.00000000     0.00000000
 H      1   0   0     2.463509371351     0.00000000     0.00000000
 H      1   2   0     4.412192024190    90.33370638     0.00000000
 H      3   1   2     2.464974550888    89.67800966     0.23462810
 O      4   3   1     2.618996048470   123.39166148   359.43371109
 O      1   2   3     2.620936247914   123.38139304   359.60148754
 C      2   1   3     1.094419652681    59.11162855   359.58414184
 C      1   2   3     1.093387190908    59.26664732     0.33766129
 C      6   1   2     1.226934132678    57.19853935     0.51442123
 C      3   1   2     1.094386133627    30.62950857   359.41486199
 C      4   3   1     1.093259852475    59.22819303   359.52896880
 C      5   4   3     1.226560739606    57.26601418     0.70783321
 H      6   1   2     2.447898363764   166.04187091   150.91327593
 H      5   4   3     2.518233317960   102.42904376   242.06902050
 H      5   4   3     2.387229245606   106.96610783   128.83511741
 H     15   5   4     4.159137355107   129.99296098   118.55616378
 H     16  15   5     2.502733920095    91.80741709   166.04993592
 H     17  16  15     2.508247154363   118.96400518     0.48231843
 H     18  17  16     4.303276273815   173.96447290    63.77782950
 H     19  18  17     2.511979236197   177.16905854   138.27032042
 H     20  19  18     2.513756010021   118.24782552   149.14603816
 H     21  20  19     4.010311597651   174.28665121   203.49011843
 H      6   1   2     2.407547665294    95.38151648   121.86632389
 H     22  21  20     2.510656179481   177.20329981   313.64075752
 H     24  22  21     2.498396148839   118.96975475   204.50394974
 C     18  17  16     2.167857454833    93.47077858   359.60769102
 C     18  17  16     1.091686023287    59.21858717   359.96167479
 C     17  16  15     1.091634839164    59.85976703     0.41463642
 C     16  15   5     1.091924805692    32.98415027   166.54651146
 N     29  16  15     1.341895652403   117.29620595     0.59927764
 C     15   5   4     1.092764882888   160.82683713   140.71846550
 C     26  18  17     1.418334194403    96.94304519   179.71557377
 C     32  26  18     1.216528068820   178.66720003   230.10885095
 C     21  20  19     1.090630357661    58.87946216     0.25034533
 C     20  19  33     1.092259691264    59.18197203   358.82847023
 C     19  18  27     1.091017032022   123.56088777   347.61932496
 C     36  19  18     1.406492376330   120.15923537     2.05406916
 N     37  36  19     1.336153834716   123.54520322   180.77644180
 C     38  37  36     1.335840656015   117.31383779   359.58918984
 C     39  38  37     1.433328786949   118.38861216   179.07588531
 C     40  39  38     1.217027667584   174.75120636   184.30503577
 C     23   6   1     1.092740712369   160.31138643   144.41676796
 C     42  23   6     1.401738661234   120.64067549   149.64971387
 C     22  21  34     1.092069846599   123.40783384     3.66314619
 C     24  22  44     1.091078657739    58.98815320     0.03400771
 C     25  24  22     1.092115912150    58.92774430   359.90461971
 N     42  23   6     1.338296052923   117.26412737   330.62509117
 H      6   1   2     2.380452686292   106.77031179   231.83218758
 H     14   5   4     4.160516416826   124.96753911   265.26077251
 H     49  14   5     2.496256296064    91.92222849   154.28659306
 H     50  49  14     2.511178690327   118.94311611   359.26217348
 H     51  50  49     4.207716081311   168.76197668    85.32868312
 H     52  51  50     2.514628901720   163.07653464   157.06550907
 H     53  52  51     2.511548435505   118.26561722    92.73669678
 H     54  53  52     4.237618399976   176.84898653   177.24275518
 H     55  54  53     2.509090639441   175.91807502   258.03666280
 H     56  55  54     2.502190951958   118.95770331   290.32693246
 C     49  14   5     1.092064845194    32.87971575   155.11067520
 C     50  49  14     1.091347789445    60.00705355     0.16729014
 C     51  50  49     1.091535109708    59.15054255     1.14340323
 C     60  51  50     1.407722406368   119.76095268   180.35173917
 N     58  49  14     1.341884265063   117.34721705     0.78221399
 C     14   5   4     1.093063601786   152.25744577   294.48680920
 C     61  60  51     1.420037125335   121.34508158     0.62905704
 C     64  61  60     1.216932200281   176.70170308    21.19948939
 C     65  64  61     1.434249878767   175.28085004   334.80359380
 C     52  51  60     1.090745683302   120.52486056   317.66290859
 C     53  52  51     1.092314282868    59.06787731    93.08723555
 C     54  53  52     1.091012945385    58.88108830     0.36317135
 N     66  65  64     1.335587327867   117.98666482   158.31637803
 C     70  66  65     1.336309458930   117.34304732   182.13285402
 C     71  70  66     1.432322818396   118.11781619   180.92973870
 C     72  71  70     1.216677096575   175.31859668   169.44237504
 C     48   6   1     1.093034737238   163.57465640   234.94115403
 C     74  48   6     1.401227819125   120.64359100   197.43038684
 C     55  54  69     1.091882932729   119.30873753     7.22252644
 C     56  55  76     1.091640813690    59.06571473   359.83941116
 C     57  56  55     1.092028317576    58.83048376   359.55148580
 N     74  48   6     1.336559979822   117.36180731    17.32040272
 Pd    30  29  16     2.024181380480   122.84040817     1.32866354
 Pd    79  74  48     2.021114356305   116.57652919   359.36546603
 H      4   3   1     5.522735691645    90.55166698   178.55333548
 C     13   6   9     2.653754981466   130.24613214   348.37872354
 H     83  13   6     4.642037242563    79.81542333   184.61316555
 H     84  83  13     2.507146799985    29.30158836   179.84971254
 H     84  83  13     2.502182747157    89.72384411   359.83125436
 C     86  84  83     1.092219138376    58.87856877   359.90834850
 C     84  83  13     1.091599715773    29.87554142   359.90227276
 C     85  84  83     1.092109917623    59.24932497   359.95897649
 C     89  85  84     1.406131902390   120.05012998   179.81456465
 N     87  86  84     1.342490330568   117.33529522   179.92529566
 C     13   6   9     1.093869244523   163.42153182   181.55223932
 C     83  13   6     1.215657854420   122.65597554     4.64080817
 H     93  83  13     2.652293452802   121.30094633   183.68695330
 H     94  93  83     2.512395073931   125.54578001   181.73629405
 N     93  83  13     2.371841656378   154.05257817     6.01943059
 C     96  93  83     1.337338317265    32.16893019   178.17655741
 C     94  93  83     1.090918285553    66.71954319   181.21118231
 C     95  94  93     1.092386540617    59.17214143   359.52298324
 C     82   4   3     1.090509568243    59.37736876   358.47205091
 C     96  93  83     1.336645707627   149.37974224   175.88376178
 C    101  96  93     1.432029948630   118.90763828   182.17262949
 C    102 101  96     1.217402881991   173.38834882   179.42023058
 H    103 102 101     2.695746920393   122.31278503   351.24373569
 H    104 103 102     2.509319409033   125.08684121   175.97234707
 H    105 104 103     2.501146458345   118.90849067     0.57087222
 H      5   4   3     2.382467308023    59.63373763   181.33683686
 C    107   5   4     1.093438109187   161.08563773   202.70891179
 C    108 107   5     1.400994550625   121.31268568   153.68739878
 C    104 103 102     1.091748677668    65.92796625   176.82613895
 C    105 104 103     1.091061014141    59.01568178     0.84012281
 C    106 105 104     1.092592414955    58.84209841     0.40142827
 N    108 107   5     1.337490120330   116.88862940   333.44196665
 H      6   1   2     2.372549084724    60.24225291   180.45355822
 H     81  79  74     2.987958536811    91.42553163   128.54722808
 H    115  81  79     2.500574572240   136.39871012   269.14583755
 H    116 115  81     2.509449586630   118.92359859     0.36128954
 H    117 116 115     6.418491726079   173.27883827   206.41037756
 H    118 117 116     2.511679162803   122.39899397   156.70079059
 H    118 117 116     2.515408191674     4.20094393   155.53725847
 H      5   4   3     2.407931996817   165.30540924   210.12706751
 H    121   5  12     4.922554863970   162.05513284   198.53327361
 H    122 121   5     2.503511800342    57.73463696   351.47049769
 H    122 121   5     2.505767704652    61.32718542   171.34899516
 C    124 122 121     1.092068399587    59.29296544     0.24426600
 C    122 121   5     1.091617003052     2.10702407   177.55278390
 C    123 122 121     1.092260728452    58.84539660   359.84369603
 N    127 123 122     1.342882550458   117.33795333   179.84320955
 C    121   5  12     1.094031682603   164.05415337   200.22019467
 C    129 121   5     1.400431634461   120.37531564   169.89529494
 C    130 129 121     1.418430103745   118.68526535   359.48328665
 C    131 130 129     1.216082124407   177.59406835   354.72739030
 C    120 118 119     1.090571267926    58.84107551     0.80460745
 C    118 117 116     1.092443562195    63.21099125   155.94110221
 C    119 118 117     1.090926331664    58.85825035   359.11702265
 C    135 119 118     1.406077158777   120.06594811   179.51906006
 N    136 135 119     1.337765473515   123.51127377   179.68003759
 C    137 136 135     1.336968146152   117.28154374     1.19906500
 C    138 137 136     1.432671598986   118.94104620   179.24126673
 C    139 138 137     1.217611462885   173.55600757   178.81899230
 C    115  81  79     1.092274036030    77.54302958   270.20058477
 C    116 115  81     1.091340886372    59.91121206     0.94444980
 C    117 116 115     1.092065643966    59.16512821     0.65223480
 C    143 117 116     1.407414078765   119.77426453   179.96632398
 C    114   6   1     1.093470192299   163.10919490   188.91835101
 N    145 114   6     1.337145969983   116.90384135   356.07181519

---------------------------
INTERNAL COORDINATES (A.U.)
---------------------------
 H      0   0   0     0.000000000000     0.00000000     0.00000000
 H      1   0   0     4.655358040202     0.00000000     0.00000000
 H      1   2   0     8.337834575990    90.33370638     0.00000000
 H      3   1   2     4.658126828264    89.67800966     0.23462810
 O      4   3   1     4.949185277431   123.39166148   359.43371109
 O      1   2   3     4.952851723024   123.38139304   359.60148754
 C      2   1   3     2.068153419148    59.11162855   359.58414184
 C      1   2   3     2.066202349153    59.26664732     0.33766129
 C      6   1   2     2.318569495121    57.19853935     0.51442123
 C      3   1   2     2.068090077317    30.62950857   359.41486199
 C      4   3   1     2.065961714388    59.22819303   359.52896880
 C      5   4   3     2.317863884475    57.26601418     0.70783321
 H      6   1   2     4.625857511187   166.04187091   150.91327593
 H      5   4   3     4.758771312261   102.42904376   242.06902050
 H      5   4   3     4.511209493083   106.96610783   128.83511741
 H     15   5   4     7.859630554513   129.99296098   118.55616378
 H     16  15   5     4.729481695055    91.80741709   166.04993592
 H     17  16  15     4.739900197933   118.96400518     0.48231843
 H     18  17  16     8.132013636111   173.96447290    63.77782950
 H     19  18  17     4.746952810509   177.16905854   138.27032042
 H     20  19  18     4.750310426438   118.24782552   149.14603816
 H     21  20  19     7.578390631248   174.28665121   203.49011843
 H      6   1   2     4.549605741767    95.38151648   121.86632389
 H     22  21  20     4.744452595656   177.20329981   313.64075752
 H     24  22  21     4.721284495349   118.96975475   204.50394974
 C     18  17  16     4.096656887013    93.47077858   359.60769102
 C     18  17  16     2.062987608243    59.21858717   359.96167479
 C     17  16  15     2.062890884267    59.85976703     0.41463642
 C     16  15   5     2.063438841593    32.98415027   166.54651146
 N     29  16  15     2.535815283341   117.29620595     0.59927764
 C     15   5   4     2.065026357425   160.82683713   140.71846550
 C     26  18  17     2.680263193798    96.94304519   179.71557377
 C     32  26  18     2.298904884299   178.66720003   230.10885095
 C     21  20  19     2.060992689319    58.87946216     0.25034533
 C     20  19  33     2.064071683611    59.18197203   358.82847023
 C     19  18  27     2.061723397965   123.56088777   347.61932496
 C     36  19  18     2.657885400712   120.15923537     2.05406916
 N     37  36  19     2.524964820401   123.54520322   180.77644180
 C     38  37  36     2.524372998426   117.31383779   359.58918984
 C     39  38  37     2.708598867200   118.38861216   179.07588531
 C     40  39  38     2.299848989140   174.75120636   184.30503577
 C     23   6   1     2.064980681764   160.31138643   144.41676796
 C     42  23   6     2.648902181062   120.64067549   149.64971387
 C     22  21  34     2.063712929186   123.40783384     3.66314619
 C     24  22  44     2.061839853694    58.98815320     0.03400771
 C     25  24  22     2.063799980461    58.92774430   359.90461971
 N     42  23   6     2.529013026132   117.26412737   330.62509117
 H      6   1   2     4.498403651849   106.77031179   231.83218758
 H     14   5   4     7.862236603485   124.96753911   265.26077251
 H     49  14   5     4.717240759637    91.92222849   154.28659306
 H     50  49  14     4.745439998057   118.94311611   359.26217348
 H     51  50  49     7.951431042974   168.76197668    85.32868312
 H     52  51  50     4.751959952694   163.07653464   157.06550907
 H     53  52  51     4.746138715184   118.26561722    92.73669678
 H     54  53  52     8.007938236021   176.84898653   177.24275518
 H     55  54  53     4.741494153728   175.91807502   258.03666280
 H     56  55  54     4.728455633975   118.95770331   290.32693246
 C     49  14   5     2.063703477900    32.87971575   155.11067520
 C     50  49  14     2.062348438911    60.00705355     0.16729014
 C     51  50  49     2.062702422908    59.15054255     1.14340323
 C     60  51  50     2.660209820620   119.76095268   180.35173917
 N     58  49  14     2.535793764388   117.34721705     0.78221399
 C     14   5   4     2.065590854334   152.25744577   294.48680920
 C     61  60  51     2.683481266885   121.34508158     0.62905704
 C     64  61  60     2.299668582081   176.70170308    21.19948939
 C     65  64  61     2.710339478479   175.28085004   334.80359380
 C     52  51  60     2.061210623198   120.52486056   317.66290859
 C     53  52  51     2.064174846792    59.06787731    93.08723555
 C     54  53  52     2.061715675340    58.88108830     0.36317135
 N     66  65  64     2.523894277604   117.98666482   158.31637803
 C     70  66  65     2.525258907547   117.34304732   182.13285402
 C     71  70  66     2.706697862135   118.11781619   180.92973870
 C     72  71  70     2.299186505940   175.31859668   169.44237504
 C     48   6   1     2.065536308242   163.57465640   234.94115403
 C     74  48   6     2.647936829378   120.64359100   197.43038684
 C     55  54  69     2.063359713160   119.30873753     7.22252644
 C     56  55  76     2.062902174485    59.06571473   359.83941116
 C     57  56  55     2.063634450706    58.83048376   359.55148580
 N     74  48   6     2.525732323422   117.36180731    17.32040272
 Pd    30  29  16     3.825148454489   122.84040817     1.32866354
 Pd    79  74  48     3.819352618752   116.57652919   359.36546603
 H      4   3   1    10.436457967241    90.55166698   178.55333548
 C     13   6   9     5.014870141499   130.24613214   348.37872354
 H     83  13   6     8.772179091907    79.81542333   184.61316555
 H     84  83  13     4.737820829508    29.30158836   179.84971254
 H     84  83  13     4.728440129149    89.72384411   359.83125436
 C     86  84  83     2.063995049757    58.87856877   359.90834850
 C     84  83  13     2.062824510677    29.87554142   359.90227276
 C     85  84  83     2.063788652447    59.24932497   359.95897649
 C     89  85  84     2.657204203686   120.05012998   179.81456465
 N     87  86  84     2.536939062211   117.33529522   179.92529566
 C     13   6   9     2.067113298468   163.42153182   181.55223932
 C     83  13   6     2.297260417405   122.65597554     4.64080817
 H     93  83  13     5.012108252587   121.30094633   183.68695330
 H     94  93  83     4.747738629943   125.54578001   181.73629405
 N     93  83  13     4.482131163580   154.05257817     6.01943059
 C     96  93  83     2.527203168030    32.16893019   178.17655741
 C     94  93  83     2.061536794181    66.71954319   181.21118231
 C     95  94  93     2.064311394148    59.17214143   359.52298324
 C     82   4   3     2.060764430400    59.37736876   358.47205091
 C     96  93  83     2.525894325496   149.37974224   175.88376178
 C    101  96  93     2.706144418484   118.90763828   182.17262949
 C    102 101  96     2.300558041610   173.38834882   179.42023058
 H    103 102 101     5.094223405905   122.31278503   351.24373569
 H    104 103 102     4.741926465605   125.08684121   175.97234707
 H    105 104 103     4.726481827099   118.90849067     0.57087222
 H      5   4   3     4.502210735183    59.63373763   181.33683686
 C    107   5   4     2.066298570756   161.08563773   202.70891179
 C    108 107   5     2.647496015797   121.31268568   153.68739878
 C    104 103 102     2.063106007862    65.92796625   176.82613895
 C    105 104 103     2.061806512125    59.01568178     0.84012281
 C    106 105 104     2.064700440264    58.84209841     0.40142827
 N    108 107   5     2.527490034250   116.88862940   333.44196665
 H      6   1   2     4.483468009414    60.24225291   180.45355822
 H     81  79  74     5.646423334085    91.42553163   128.54722808
 H    115  81  79     4.725401118980   136.39871012   269.14583755
 H    116 115  81     4.742172465613   118.92359859     0.36128954
 H    117 116 115    12.129191555129   173.27883827   206.41037756
 H    118 117 116     4.746385753974   122.39899397   156.70079059
 H    118 117 116     4.753432597286     4.20094393   155.53725847
 H      5   4   3     4.550332023091   165.30540924   210.12706751
 H    121   5  12     9.302280572106   162.05513284   198.53327361
 H    122 121   5     4.730951675686    57.73463696   351.47049769
 H    122 121   5     4.735214717016    61.32718542   171.34899516
 C    124 122 121     2.063710194730    59.29296544     0.24426600
 C    122 121   5     2.062857178901     2.10702407   177.55278390
 C    123 122 121     2.064073643611    58.84539660   359.84369603
 N    127 123 122     2.537680250388   117.33795333   179.84320955
 C    121   5  12     2.067420261953   164.05415337   200.22019467
 C    129 121   5     2.646432258410   120.37531564   169.89529494
 C    130 129 121     2.680444436187   118.68526535   359.48328665
 C    131 130 129     2.298062171486   177.59406835   354.72739030
 C    120 118 119     2.060881025903    58.84107551     0.80460745
 C    118 117 116     2.064419149314    63.21099125   155.94110221
 C    119 118 117     2.061551999128    58.85825035   359.11702265
 C    135 119 118     2.657100753250   120.06594811   179.51906006
 N    136 135 119     2.528010376359   123.51127377   179.68003759
 C    137 136 135     2.526503646004   117.28154374     1.19906500
 C    138 137 136     2.707356961931   118.94104620   179.24126673
 C    139 138 137     2.300952202376   173.55600757   178.81899230
 C    115  81  79     2.064098791289    77.54302958   270.20058477
 C    116 115  81     2.062335393994    59.91121206     0.94444980
 C    117 116 115     2.063704987359    59.16512821     0.65223480
 C    143 117 116     2.659627165890   119.77426453   179.96632398
 C    114   6   1     2.066359199051   163.10919490   188.91835101
 N    145 114   6     2.526839684345   116.90384135   356.07181519

---------------------
BASIS SET INFORMATION
---------------------
There are 5 groups of distinct atoms

 Group   1 Type H   : 4s1p contracted to 2s1p pattern {31/1}
 Group   2 Type O   : 7s4p1d contracted to 3s2p1d pattern {511/31/1}
 Group   3 Type C   : 7s4p1d contracted to 3s2p1d pattern {511/31/1}
 Group   4 Type N   : 7s4p1d contracted to 3s2p1d pattern {511/31/1}
 Group   5 Type Pd  : 7s6p5d1f contracted to 5s3p2d1f pattern {31111/411/41/1}

Atom   0H    basis set group =>   1
Atom   1H    basis set group =>   1
Atom   2H    basis set group =>   1
Atom   3H    basis set group =>   1
Atom   4O    basis set group =>   2
Atom   5O    basis set group =>   2
Atom   6C    basis set group =>   3
Atom   7C    basis set group =>   3
Atom   8C    basis set group =>   3
Atom   9C    basis set group =>   3
Atom  10C    basis set group =>   3
Atom  11C    basis set group =>   3
Atom  12H    basis set group =>   1
Atom  13H    basis set group =>   1
Atom  14H    basis set group =>   1
Atom  15H    basis set group =>   1
Atom  16H    basis set group =>   1
Atom  17H    basis set group =>   1
Atom  18H    basis set group =>   1
Atom  19H    basis set group =>   1
Atom  20H    basis set group =>   1
Atom  21H    basis set group =>   1
Atom  22H    basis set group =>   1
Atom  23H    basis set group =>   1
Atom  24H    basis set group =>   1
Atom  25C    basis set group =>   3
Atom  26C    basis set group =>   3
Atom  27C    basis set group =>   3
Atom  28C    basis set group =>   3
Atom  29N    basis set group =>   4
Atom  30C    basis set group =>   3
Atom  31C    basis set group =>   3
Atom  32C    basis set group =>   3
Atom  33C    basis set group =>   3
Atom  34C    basis set group =>   3
Atom  35C    basis set group =>   3
Atom  36C    basis set group =>   3
Atom  37N    basis set group =>   4
Atom  38C    basis set group =>   3
Atom  39C    basis set group =>   3
Atom  40C    basis set group =>   3
Atom  41C    basis set group =>   3
Atom  42C    basis set group =>   3
Atom  43C    basis set group =>   3
Atom  44C    basis set group =>   3
Atom  45C    basis set group =>   3
Atom  46N    basis set group =>   4
Atom  47H    basis set group =>   1
Atom  48H    basis set group =>   1
Atom  49H    basis set group =>   1
Atom  50H    basis set group =>   1
Atom  51H    basis set group =>   1
Atom  52H    basis set group =>   1
Atom  53H    basis set group =>   1
Atom  54H    basis set group =>   1
Atom  55H    basis set group =>   1
Atom  56H    basis set group =>   1
Atom  57C    basis set group =>   3
Atom  58C    basis set group =>   3
Atom  59C    basis set group =>   3
Atom  60C    basis set group =>   3
Atom  61N    basis set group =>   4
Atom  62C    basis set group =>   3
Atom  63C    basis set group =>   3
Atom  64C    basis set group =>   3
Atom  65C    basis set group =>   3
Atom  66C    basis set group =>   3
Atom  67C    basis set group =>   3
Atom  68C    basis set group =>   3
Atom  69N    basis set group =>   4
Atom  70C    basis set group =>   3
Atom  71C    basis set group =>   3
Atom  72C    basis set group =>   3
Atom  73C    basis set group =>   3
Atom  74C    basis set group =>   3
Atom  75C    basis set group =>   3
Atom  76C    basis set group =>   3
Atom  77C    basis set group =>   3
Atom  78N    basis set group =>   4
Atom  79Pd   basis set group =>   5
Atom  80Pd   basis set group =>   5
Atom  81H    basis set group =>   1
Atom  82C    basis set group =>   3
Atom  83H    basis set group =>   1
Atom  84H    basis set group =>   1
Atom  85H    basis set group =>   1
Atom  86C    basis set group =>   3
Atom  87C    basis set group =>   3
Atom  88C    basis set group =>   3
Atom  89C    basis set group =>   3
Atom  90N    basis set group =>   4
Atom  91C    basis set group =>   3
Atom  92C    basis set group =>   3
Atom  93H    basis set group =>   1
Atom  94H    basis set group =>   1
Atom  95N    basis set group =>   4
Atom  96C    basis set group =>   3
Atom  97C    basis set group =>   3
Atom  98C    basis set group =>   3
Atom  99C    basis set group =>   3
Atom 100C    basis set group =>   3
Atom 101C    basis set group =>   3
Atom 102C    basis set group =>   3
Atom 103H    basis set group =>   1
Atom 104H    basis set group =>   1
Atom 105H    basis set group =>   1
Atom 106H    basis set group =>   1
Atom 107C    basis set group =>   3
Atom 108C    basis set group =>   3
Atom 109C    basis set group =>   3
Atom 110C    basis set group =>   3
Atom 111C    basis set group =>   3
Atom 112N    basis set group =>   4
Atom 113H    basis set group =>   1
Atom 114H    basis set group =>   1
Atom 115H    basis set group =>   1
Atom 116H    basis set group =>   1
Atom 117H    basis set group =>   1
Atom 118H    basis set group =>   1
Atom 119H    basis set group =>   1
Atom 120H    basis set group =>   1
Atom 121H    basis set group =>   1
Atom 122H    basis set group =>   1
Atom 123H    basis set group =>   1
Atom 124C    basis set group =>   3
Atom 125C    basis set group =>   3
Atom 126C    basis set group =>   3
Atom 127N    basis set group =>   4
Atom 128C    basis set group =>   3
Atom 129C    basis set group =>   3
Atom 130C    basis set group =>   3
Atom 131C    basis set group =>   3
Atom 132C    basis set group =>   3
Atom 133C    basis set group =>   3
Atom 134C    basis set group =>   3
Atom 135C    basis set group =>   3
Atom 136N    basis set group =>   4
Atom 137C    basis set group =>   3
Atom 138C    basis set group =>   3
Atom 139C    basis set group =>   3
Atom 140C    basis set group =>   3
Atom 141C    basis set group =>   3
Atom 142C    basis set group =>   3
Atom 143C    basis set group =>   3
Atom 144C    basis set group =>   3
Atom 145N    basis set group =>   4
-------------------------------
AUXILIARY BASIS SET INFORMATION
-------------------------------
There are 5 groups of distinct atoms

 Group   1 Type H   : 5s2p1d contracted to 3s1p1d pattern {311/2/1}
 Group   2 Type O   : 12s5p4d2f1g contracted to 6s4p3d1f1g pattern {711111/2111/211/2/1}
 Group   3 Type C   : 12s5p4d2f1g contracted to 6s4p3d1f1g pattern {711111/2111/211/2/1}
 Group   4 Type N   : 12s5p4d2f1g contracted to 6s4p3d1f1g pattern {711111/2111/211/2/1}
 Group   5 Type Pd  : 11s5p5d3f3g contracted to 8s5p5d2f3g pattern {41111111/11111/11111/21/111}

Atom   0H    basis set group =>   1
Atom   1H    basis set group =>   1
Atom   2H    basis set group =>   1
Atom   3H    basis set group =>   1
Atom   4O    basis set group =>   2
Atom   5O    basis set group =>   2
Atom   6C    basis set group =>   3
Atom   7C    basis set group =>   3
Atom   8C    basis set group =>   3
Atom   9C    basis set group =>   3
Atom  10C    basis set group =>   3
Atom  11C    basis set group =>   3
Atom  12H    basis set group =>   1
Atom  13H    basis set group =>   1
Atom  14H    basis set group =>   1
Atom  15H    basis set group =>   1
Atom  16H    basis set group =>   1
Atom  17H    basis set group =>   1
Atom  18H    basis set group =>   1
Atom  19H    basis set group =>   1
Atom  20H    basis set group =>   1
Atom  21H    basis set group =>   1
Atom  22H    basis set group =>   1
Atom  23H    basis set group =>   1
Atom  24H    basis set group =>   1
Atom  25C    basis set group =>   3
Atom  26C    basis set group =>   3
Atom  27C    basis set group =>   3
Atom  28C    basis set group =>   3
Atom  29N    basis set group =>   4
Atom  30C    basis set group =>   3
Atom  31C    basis set group =>   3
Atom  32C    basis set group =>   3
Atom  33C    basis set group =>   3
Atom  34C    basis set group =>   3
Atom  35C    basis set group =>   3
Atom  36C    basis set group =>   3
Atom  37N    basis set group =>   4
Atom  38C    basis set group =>   3
Atom  39C    basis set group =>   3
Atom  40C    basis set group =>   3
Atom  41C    basis set group =>   3
Atom  42C    basis set group =>   3
Atom  43C    basis set group =>   3
Atom  44C    basis set group =>   3
Atom  45C    basis set group =>   3
Atom  46N    basis set group =>   4
Atom  47H    basis set group =>   1
Atom  48H    basis set group =>   1
Atom  49H    basis set group =>   1
Atom  50H    basis set group =>   1
Atom  51H    basis set group =>   1
Atom  52H    basis set group =>   1
Atom  53H    basis set group =>   1
Atom  54H    basis set group =>   1
Atom  55H    basis set group =>   1
Atom  56H    basis set group =>   1
Atom  57C    basis set group =>   3
Atom  58C    basis set group =>   3
Atom  59C    basis set group =>   3
Atom  60C    basis set group =>   3
Atom  61N    basis set group =>   4
Atom  62C    basis set group =>   3
Atom  63C    basis set group =>   3
Atom  64C    basis set group =>   3
Atom  65C    basis set group =>   3
Atom  66C    basis set group =>   3
Atom  67C    basis set group =>   3
Atom  68C    basis set group =>   3
Atom  69N    basis set group =>   4
Atom  70C    basis set group =>   3
Atom  71C    basis set group =>   3
Atom  72C    basis set group =>   3
Atom  73C    basis set group =>   3
Atom  74C    basis set group =>   3
Atom  75C    basis set group =>   3
Atom  76C    basis set group =>   3
Atom  77C    basis set group =>   3
Atom  78N    basis set group =>   4
Atom  79Pd   basis set group =>   5
Atom  80Pd   basis set group =>   5
Atom  81H    basis set group =>   1
Atom  82C    basis set group =>   3
Atom  83H    basis set group =>   1
Atom  84H    basis set group =>   1
Atom  85H    basis set group =>   1
Atom  86C    basis set group =>   3
Atom  87C    basis set group =>   3
Atom  88C    basis set group =>   3
Atom  89C    basis set group =>   3
Atom  90N    basis set group =>   4
Atom  91C    basis set group =>   3
Atom  92C    basis set group =>   3
Atom  93H    basis set group =>   1
Atom  94H    basis set group =>   1
Atom  95N    basis set group =>   4
Atom  96C    basis set group =>   3
Atom  97C    basis set group =>   3
Atom  98C    basis set group =>   3
Atom  99C    basis set group =>   3
Atom 100C    basis set group =>   3
Atom 101C    basis set group =>   3
Atom 102C    basis set group =>   3
Atom 103H    basis set group =>   1
Atom 104H    basis set group =>   1
Atom 105H    basis set group =>   1
Atom 106H    basis set group =>   1
Atom 107C    basis set group =>   3
Atom 108C    basis set group =>   3
Atom 109C    basis set group =>   3
Atom 110C    basis set group =>   3
Atom 111C    basis set group =>   3
Atom 112N    basis set group =>   4
Atom 113H    basis set group =>   1
Atom 114H    basis set group =>   1
Atom 115H    basis set group =>   1
Atom 116H    basis set group =>   1
Atom 117H    basis set group =>   1
Atom 118H    basis set group =>   1
Atom 119H    basis set group =>   1
Atom 120H    basis set group =>   1
Atom 121H    basis set group =>   1
Atom 122H    basis set group =>   1
Atom 123H    basis set group =>   1
Atom 124C    basis set group =>   3
Atom 125C    basis set group =>   3
Atom 126C    basis set group =>   3
Atom 127N    basis set group =>   4
Atom 128C    basis set group =>   3
Atom 129C    basis set group =>   3
Atom 130C    basis set group =>   3
Atom 131C    basis set group =>   3
Atom 132C    basis set group =>   3
Atom 133C    basis set group =>   3
Atom 134C    basis set group =>   3
Atom 135C    basis set group =>   3
Atom 136N    basis set group =>   4
Atom 137C    basis set group =>   3
Atom 138C    basis set group =>   3
Atom 139C    basis set group =>   3
Atom 140C    basis set group =>   3
Atom 141C    basis set group =>   3
Atom 142C    basis set group =>   3
Atom 143C    basis set group =>   3
Atom 144C    basis set group =>   3
Atom 145N    basis set group =>   4
-------------------------
ECP PARAMETER INFORMATION
-------------------------

 Group 1, Type Pd ECP Def2-ECP (replacing 28 core electrons, lmax=3)

Atom  79Pd   ECP group =>   1
Atom  80Pd   ECP group =>   1



           ************************************************************
           *        Program running with 8 parallel MPI-processes     *
           *              working on a common directory               *
           ************************************************************
------------------------------------------------------------------------------
                           ORCA GTO INTEGRAL CALCULATION
                           -- RI-GTO INTEGRALS CHOSEN --
------------------------------------------------------------------------------

                         BASIS SET STATISTICS AND STARTUP INFO

Gaussian basis set:
 # of primitive gaussian shells          ... 1430
 # of primitive gaussian functions       ... 2754
 # of contracted shells                  ...  742
 # of contracted basis functions         ... 1646
 Highest angular momentum                ...    3
 Maximum contraction depth               ...    5
Auxiliary gaussian basis set:
 # of primitive gaussian shells          ... 2742
 # of primitive gaussian functions       ... 7686
 # of contracted shells                  ... 1726
 # of contracted aux-basis functions     ... 5410
 Highest angular momentum                ...    4
 Maximum contraction depth               ...    7
Ratio of auxiliary to basis functions    ...  3.29
Integral package used                  ... LIBINT
 One Electron integrals                  
   ECP integrals                         ... done
 Ordering auxiliary basis shells         ... done
 Integral threshhold             Thresh  ...  1.000e-10
 Primitive cut-off               TCut    ...  1.000e-11
 Pre-screening matrix                    ... done
 Shell pair data                         ... 
 Ordering of the shell pairs             ... done (   0.018 sec) 93163 of 275653 pairs
 Determination of significant pairs      ... done (   0.000 sec)
 Creation of shell pair data             ... done (   0.010 sec)
 Storage of shell pair data              ... done (   0.018 sec)
 Shell pair data done in (   0.047 sec)
 Computing two index integrals           ... done
 Cholesky decomposition of the V-matrix  ... done


Timings:
 Total evaluation time                   ...   7.721 sec (  0.129 min)
 One electron matrix time                ...   4.354 sec (  0.073 min) = 56.4%
 Schwartz matrix evaluation time         ...   1.243 sec (  0.021 min) = 16.1%
 Two index repulsion integral time       ...   0.718 sec (  0.012 min) =  9.3%
 Cholesky decomposition of V             ...   1.342 sec (  0.022 min) = 17.4%
 Three index repulsion integral time     ...   0.000 sec (  0.000 min) =  0.0%



           ************************************************************
           *        Program running with 8 parallel MPI-processes     *
           *              working on a common directory               *
           ************************************************************
-------------------------------------------------------------------------------
                                 ORCA SCF
-------------------------------------------------------------------------------

------------
SCF SETTINGS
------------
Hamiltonian:
 Density Functional     Method          .... DFT(GTOs)
 Exchange Functional    Exchange        .... PBE
   PBE kappa parameter   XKappa         ....  0.804000
   PBE mue parameter    XMuePBE         ....  0.219520
 Correlation Functional Correlation     .... PBE
   PBE beta parameter  CBetaPBE         ....  0.066725
 LDA part of GGA corr.  LDAOpt          .... PW91-LDA
 Gradients option       PostSCFGGA      .... off
 Hybrid DFT is turned on
   Fraction HF Exchange ScalHFX         ....  0.250000
   Scaling of DF-GGA-X  ScalDFX         ....  0.750000
   Scaling of DF-GGA-C  ScalDFC         ....  1.000000
   Scaling of DF-LDA-C  ScalLDAC        ....  1.000000
   Perturbative correction              ....  0.000000
   NL short-range parameter             ....  6.900000
 RI-approximation to the Coulomb term is turned on
   Number of auxiliary basis functions  .... 5410
   RIJ-COSX (HFX calculated with COS-X)).... on


General Settings:
 Integral files         IntName         .... /scratch/141999.1.multiway.q/cage_quinone_sp
 Hartree-Fock type      HFTyp           .... RHF
 Total Charge           Charge          ....    4
 Multiplicity           Mult            ....    1
 Number of Electrons    NEL             ....  672
 Basis Dimension        Dim             .... 1646
 Nuclear Repulsion      ENuc            ....  17967.9046977103 Eh

Convergence Acceleration:
 DIIS                   CNVDIIS         .... on
   Start iteration      DIISMaxIt       ....    12
   Startup error        DIISStart       ....  0.200000
   # of expansion vecs  DIISMaxEq       ....     5
   Bias factor          DIISBfac        ....   1.050
   Max. coefficient     DIISMaxC        ....  10.000
 Newton-Raphson         CNVNR           .... off
 SOSCF                  CNVSOSCF        .... off
 Level Shifting         CNVShift        .... on
   Level shift para.    LevelShift      ....    0.2500
   Turn off err/grad.   ShiftErr        ....    0.0010
 Zerner damping         CNVZerner       .... off
 Static damping         CNVDamp         .... on
   Fraction old density DampFac         ....    0.7000
   Max. Damping (<1)    DampMax         ....    0.9800
   Min. Damping (>=0)   DampMin         ....    0.0000
   Turn off err/grad.   DampErr         ....    0.1000
 Fernandez-Rico         CNVRico         .... off

SCF Procedure:
 Maximum # iterations   MaxIter         ....   125
 SCF integral mode      SCFMode         .... Direct
   Integral package                     .... LIBINT
 Reset frequeny         DirectResetFreq ....    20
 Integral Threshold     Thresh          ....  1.000e-10 Eh
 Primitive CutOff       TCut            ....  1.000e-11 Eh

Convergence Tolerance:
 Convergence Check Mode ConvCheckMode   .... Total+1el-Energy
 Convergence forced     ConvForced      .... 0
 Energy Change          TolE            ....  1.000e-06 Eh
 1-El. energy change                    ....  1.000e-03 Eh
 DIIS Error             TolErr          ....  1.000e-06


Diagonalization of the overlap matrix:
Smallest eigenvalue                        ... 2.945e-04
Time for diagonalization                   ...    0.516 sec
Threshold for overlap eigenvalues          ... 1.000e-08
Number of eigenvalues below threshold      ... 0
Time for construction of square roots      ...    0.330 sec
Total time needed                          ...    0.852 sec

-------------------
DFT GRID GENERATION
-------------------

General Integration Accuracy     IntAcc      ...  4.340
Radial Grid Type                 RadialGrid  ... Gauss-Chebyshev
Angular Grid (max. acc.)         AngularGrid ... Lebedev-110
Angular grid pruning method      GridPruning ... 3 (G Style)
Weight generation scheme         WeightScheme... Becke
Basis function cutoff            BFCut       ...    1.0000e-10
Integration weight cutoff        WCut        ...    1.0000e-14
Grids for H and He will be reduced by one unit

# of grid points (after initial pruning)     ... 204248 (   0.0 sec)
# of grid points (after weights+screening)   ... 175625 (   1.9 sec)
nearest neighbour list constructed           ...    0.0 sec
Grid point re-assignment to atoms done       ...    0.0 sec
Grid point division into batches done        ...    0.1 sec
Reduced shell lists constructed in    0.8 sec

Total number of grid points                  ...   175625
Total number of batches                      ...     2813
Average number of points per batch           ...       62
Average number of grid points per atom       ...     1203
Average number of shells per batch           ...   166.58 (22.45%)
Average number of basis functions per batch  ...   333.33 (20.25%)
Average number of large shells per batch     ...    76.14 (45.71%)
Average number of large basis fcns per batch ...   157.33 (47.20%)
Maximum spatial batch extension              ...  18.69, 19.67, 17.24 au
Average spatial batch extension              ...   0.41,  0.36,  0.42 au

Time for grid setup =    2.769 sec

------------------------------
INITIAL GUESS: MODEL POTENTIAL
------------------------------
Loading Hartree-Fock densities                     ... done
  calling /usr/local/orca_4_0_1_2_linux_x86-64/orca /scratch/141999.1.multiway.q/cage_quinone_sp_atom46.inp > /scratch/141999.1.multiway.q/cage_quinone_sp_atom46.out in order to generate an atomic fitting density for atom 79 (Pd with ECP) on-the-fly... 
    atom 79 (Pd), assumed electronic state with S=3: 1s2 2s2 2p6 3s2 3p6 4s2 3d10 4p6 5s2 4d8           ... done
Calculating cut-offs                               ... done
Setting up the integral package                    ... done
Initializing the effective Hamiltonian             ... done
Starting the Coulomb interaction                   ... done (   2.6 sec)
Reading the grid                                   ... done
Mapping shells                                     ... done
Starting the XC term evaluation                    ... done (   1.0 sec)
  promolecular density results
     # of electrons  =    731.954790330
     EX              =   -805.311805560
     EC              =    -26.337436898
     EX+EC           =   -831.649242458
Transforming the Hamiltonian                       ... done (   0.2 sec)
Diagonalizing the Hamiltonian                      ... done (   0.5 sec)
Back transforming the eigenvectors                 ... done (   0.1 sec)
Now organizing SCF variables                       ... done
                      ------------------
                      INITIAL GUESS DONE (   8.1 sec)
                      ------------------
--------------------
COSX GRID GENERATION
--------------------

General Integration Accuracy     IntAcc      ...  3.340
Radial Grid Type                 RadialGrid  ... Gauss-Chebyshev
Angular Grid (max. acc.)         AngularGrid ... Lebedev-50
Angular grid pruning method      GridPruning ... 3 (G Style)
Weight generation scheme         WeightScheme... Becke
Basis function cutoff            BFCut       ...    1.0000e-10
Integration weight cutoff        WCut        ...    1.0000e-14
Grids for H and He will be reduced by one unit

# of grid points (after initial pruning)     ...  73332 (   0.0 sec)
# of grid points (after weights+screening)   ...  64493 (   0.7 sec)
nearest neighbour list constructed           ...    0.0 sec
Grid point re-assignment to atoms done       ...    0.0 sec
Grid point division into batches done        ...    0.0 sec
Reduced shell lists constructed in    0.3 sec

Total number of grid points                  ...    64493
Total number of batches                      ...     1080
Average number of points per batch           ...       59
Average number of grid points per atom       ...      442
Average number of shells per batch           ...   184.46 (24.86%)
Average number of basis functions per batch  ...   371.47 (22.57%)
Average number of large shells per batch     ...    85.49 (46.35%)
Average number of large basis fcns per batch ...   177.38 (47.75%)
Maximum spatial batch extension              ...  17.53, 17.36, 14.26 au
Average spatial batch extension              ...   0.54,  0.48,  0.60 au

Overlap Fitting                  UseSFitting ... on
Constructing numerical overlap ... done (      0.2 sec)
Inverting numerical overlap    ... done (      0.1 sec)
Obtaining analytic overlap     ... done (      0.0 sec)
Final contraction and storage  ... done (      0.3 sec)


General Integration Accuracy     IntAcc      ...  3.670
Radial Grid Type                 RadialGrid  ... Gauss-Chebyshev
Angular Grid (max. acc.)         AngularGrid ... Lebedev-50
Angular grid pruning method      GridPruning ... 3 (G Style)
Weight generation scheme         WeightScheme... Becke
Basis function cutoff            BFCut       ...    1.0000e-10
Integration weight cutoff        WCut        ...    1.0000e-14
Grids for H and He will be reduced by one unit

# of grid points (after initial pruning)     ...  91588 (   0.0 sec)
# of grid points (after weights+screening)   ...  80128 (   0.9 sec)
nearest neighbour list constructed           ...    0.0 sec
Grid point re-assignment to atoms done       ...    0.0 sec
Grid point division into batches done        ...    0.0 sec
Reduced shell lists constructed in    0.6 sec

Total number of grid points                  ...    80128
Total number of batches                      ...     1324
Average number of points per batch           ...       60
Average number of grid points per atom       ...      549
Average number of shells per batch           ...   179.73 (24.22%)
Average number of basis functions per batch  ...   361.34 (21.95%)
Average number of large shells per batch     ...    82.74 (46.04%)
Average number of large basis fcns per batch ...   171.26 (47.40%)
Maximum spatial batch extension              ...  18.56, 18.45, 15.25 au
Average spatial batch extension              ...   0.50,  0.45,  0.55 au

Overlap Fitting                  UseSFitting ... on
Constructing numerical overlap ... done (      0.2 sec)
Inverting numerical overlap    ... done (      0.1 sec)
Obtaining analytic overlap     ... done (      0.0 sec)
Final contraction and storage  ... done (      0.3 sec)


General Integration Accuracy     IntAcc      ...  4.010
Radial Grid Type                 RadialGrid  ... Gauss-Chebyshev
Angular Grid (max. acc.)         AngularGrid ... Lebedev-110
Angular grid pruning method      GridPruning ... 3 (G Style)
Weight generation scheme         WeightScheme... Becke
Basis function cutoff            BFCut       ...    1.0000e-10
Integration weight cutoff        WCut        ...    1.0000e-14
Grids for H and He will be reduced by one unit

# of grid points (after initial pruning)     ... 178724 (   0.0 sec)
# of grid points (after weights+screening)   ... 154414 (   1.7 sec)
nearest neighbour list constructed           ...    0.0 sec
Grid point re-assignment to atoms done       ...    0.0 sec
Grid point division into batches done        ...    0.1 sec
Reduced shell lists constructed in    0.8 sec

Total number of grid points                  ...   154414
Total number of batches                      ...     2479
Average number of points per batch           ...       62
Average number of grid points per atom       ...     1058
Average number of shells per batch           ...   168.77 (22.74%)
Average number of basis functions per batch  ...   337.75 (20.52%)
Average number of large shells per batch     ...    77.75 (46.07%)
Average number of large basis fcns per batch ...   160.52 (47.53%)
Maximum spatial batch extension              ...  17.50, 17.91, 18.77 au
Average spatial batch extension              ...   0.43,  0.38,  0.45 au

Overlap Fitting                  UseSFitting ... on
Constructing numerical overlap ... done (      0.3 sec)
Inverting numerical overlap    ... done (      0.1 sec)
Obtaining analytic overlap     ... done (      0.0 sec)
Final contraction and storage  ... done (      0.3 sec)

Time for X-Grid setup             =    7.192 sec
--------------
SCF ITERATIONS
--------------
ITER       Energy         Delta-E        Max-DP      RMS-DP      [F,P]     Damp
               ***  Starting incremental Fock matrix formation  ***
  0  -4206.7941526563   0.000000000000 0.06738862  0.00069908  0.4602206 0.7000
  1  -4207.2961886760  -0.502036019745 0.04380723  0.00050460  0.3176550 0.7000
  2  -4207.5371667835  -0.240978107460 0.02692354  0.00028705  0.2182582 0.7000
                               ***Turning on DIIS***
  3  -4207.6748575686  -0.137690785072 0.01701216  0.00016153  0.1506003 0.7000
  4  -4207.7675609120  -0.092703343424 0.01027296  0.00009352  0.1044078 0.7000
  5  -4207.8323458862  -0.064784974198 0.02439867  0.00021609  0.0731375 0.0000
  6  -4207.9821947700  -0.149848883815 0.00270207  0.00002320  0.0014402 0.0000
  7  -4207.9823010115  -0.000106241492 0.00108185  0.00000923  0.0007256 0.0000
               *** Restarting incremental Fock matrix formation ***
                                   *** Resetting DIIS ***
  8  -4207.9823586439  -0.000057632391 0.00122928  0.00000652  0.0010303 0.0000
  9  -4207.9823583692   0.000000274726 0.00052070  0.00000227  0.0012559 0.0000
 10  -4207.9823660689  -0.000007699764 0.00015693  0.00000144  0.0002716 0.0000
 11  -4207.9823670855  -0.000001016575 0.00011081  0.00000046  0.0001128 0.0000
 12  -4207.9823671191  -0.000000033568 0.00004680  0.00000022  0.0000835 0.0000
 13  -4207.9823672575  -0.000000138425 0.00001252  0.00000008  0.0000099 0.0000
                 **** Energy Check signals convergence ****

               *****************************************************
               *                     SUCCESS                       *
               *           SCF CONVERGED AFTER  14 CYCLES          *
               *****************************************************

Setting up the final grid:

General Integration Accuracy     IntAcc      ...  4.670
Radial Grid Type                 RadialGrid  ... Gauss-Chebyshev
Angular Grid (max. acc.)         AngularGrid ... Lebedev-302
Angular grid pruning method      GridPruning ... 3 (G Style)
Weight generation scheme         WeightScheme... Becke
Basis function cutoff            BFCut       ...    1.0000e-10
Integration weight cutoff        WCut        ...    1.0000e-14
Grids for H and He will be reduced by one unit

# of grid points (after initial pruning)     ... 780628 (   0.0 sec)
# of grid points (after weights+screening)   ... 651479 (   7.4 sec)
nearest neighbour list constructed           ...    0.0 sec
Grid point re-assignment to atoms done       ...    0.1 sec
Grid point division into batches done        ...    2.0 sec
Reduced shell lists constructed in    4.7 sec

Total number of grid points                  ...   651479
Total number of batches                      ...    10250
Average number of points per batch           ...       63
Average number of grid points per atom       ...     4462
Average number of shells per batch           ...   147.80 (19.92%)
Average number of basis functions per batch  ...   294.02 (17.86%)
Average number of large shells per batch     ...    67.01 (45.34%)
Average number of large basis fcns per batch ...   137.23 (46.68%)
Maximum spatial batch extension              ...  37.11, 17.92, 23.20 au
Average spatial batch extension              ...   0.25,  0.23,  0.25 au

Final grid set up in   12.4 sec
Final integration                            ... done (   3.3 sec)
Change in XC energy                          ...     0.000875969
Integrated number of electrons               ...   672.000520255
Previous integrated no of electrons          ...   672.000811636
Old exchange energy                            =   -139.739861631 Eh
New exchange energy                            =   -139.738673536 Eh
Exchange energy change after final integration =      0.001188095 Eh
Total energy after final integration           =  -4207.980303134 Eh
Final COS-X integration done in                =    85.283 sec

----------------
TOTAL SCF ENERGY
----------------

Total Energy       :        -4207.98030313 Eh         -114504.96537 eV

Components:
Nuclear Repulsion  :        17967.90469771 Eh          488931.54362 eV
Electronic Energy  :       -22175.88500084 Eh         -603436.50899 eV
One Electron Energy:       -41451.43522240 Eh        -1127950.89632 eV
Two Electron Energy:        19275.55022155 Eh          524514.38732 eV

Virial components:
Potential Energy   :        -8216.62139695 Eh         -223585.63509 eV
Kinetic Energy     :         4008.64109382 Eh          109080.66972 eV
Virial Ratio       :            2.04972738


DFT components:
N(Alpha)           :      336.000260127459 electrons
N(Beta)            :      336.000260127459 electrons
N(Total)           :      672.000520254917 electrons
E(X)               :     -418.701357262537 Eh       
[...]
freq.     409.97  E(vib)   ...       0.19 
freq.     411.44  E(vib)   ...       0.19 
freq.     412.97  E(vib)   ...       0.19 
freq.     414.08  E(vib)   ...       0.19 
freq.     427.75  E(vib)   ...       0.18 
freq.     427.99  E(vib)   ...       0.18 
freq.     429.56  E(vib)   ...       0.18 
freq.     445.78  E(vib)   ...       0.17 
freq.     447.67  E(vib)   ...       0.17 
freq.     449.33  E(vib)   ...       0.17 
freq.     452.48  E(vib)   ...       0.16 
freq.     455.37  E(vib)   ...       0.16 
freq.     456.53  E(vib)   ...       0.16 
freq.     457.87  E(vib)   ...       0.16 
freq.     458.14  E(vib)   ...       0.16 
freq.     459.84  E(vib)   ...       0.16 
freq.     461.24  E(vib)   ...       0.16 
freq.     462.49  E(vib)   ...       0.16 
freq.     469.77  E(vib)   ...       0.16 
freq.     492.39  E(vib)   ...       0.14 
freq.     497.92  E(vib)   ...       0.14 
freq.     500.73  E(vib)   ...       0.14 
freq.     501.39  E(vib)   ...       0.14 
freq.     506.39  E(vib)   ...       0.14 
freq.     506.88  E(vib)   ...       0.14 
freq.     510.39  E(vib)   ...       0.14 
freq.     512.81  E(vib)   ...       0.13 
freq.     556.00  E(vib)   ...       0.12 
freq.     568.93  E(vib)   ...       0.11 
freq.     570.18  E(vib)   ...       0.11 
freq.     570.21  E(vib)   ...       0.11 
freq.     571.21  E(vib)   ...       0.11 
freq.     571.38  E(vib)   ...       0.11 
freq.     572.02  E(vib)   ...       0.11 
freq.     572.76  E(vib)   ...       0.11 
freq.     573.60  E(vib)   ...       0.11 
freq.     577.03  E(vib)   ...       0.11 
freq.     582.27  E(vib)   ...       0.11 
freq.     583.01  E(vib)   ...       0.11 
freq.     583.67  E(vib)   ...       0.11 
freq.     583.96  E(vib)   ...       0.11 
freq.     588.94  E(vib)   ...       0.10 
freq.     590.61  E(vib)   ...       0.10 
freq.     592.28  E(vib)   ...       0.10 
freq.     593.16  E(vib)   ...       0.10 
freq.     599.60  E(vib)   ...       0.10 
freq.     601.26  E(vib)   ...       0.10 
freq.     601.44  E(vib)   ...       0.10 
freq.     614.25  E(vib)   ...       0.10 
freq.     620.66  E(vib)   ...       0.09 
freq.     621.48  E(vib)   ...       0.09 
freq.     621.78  E(vib)   ...       0.09 
freq.     622.06  E(vib)   ...       0.09 
freq.     674.91  E(vib)   ...       0.08 
freq.     676.28  E(vib)   ...       0.08 
freq.     677.13  E(vib)   ...       0.08 
freq.     677.40  E(vib)   ...       0.08 
freq.     678.50  E(vib)   ...       0.08 
freq.     679.14  E(vib)   ...       0.08 
freq.     679.71  E(vib)   ...       0.08 
freq.     681.15  E(vib)   ...       0.08 
freq.     691.67  E(vib)   ...       0.07 
freq.     692.11  E(vib)   ...       0.07 
freq.     693.75  E(vib)   ...       0.07 
freq.     694.14  E(vib)   ...       0.07 
freq.     705.81  E(vib)   ...       0.07 
freq.     706.56  E(vib)   ...       0.07 
freq.     707.97  E(vib)   ...       0.07 
freq.     708.45  E(vib)   ...       0.07 
freq.     709.73  E(vib)   ...       0.07 
freq.     710.07  E(vib)   ...       0.07 
freq.     717.43  E(vib)   ...       0.07 
freq.     718.02  E(vib)   ...       0.07 
freq.     721.45  E(vib)   ...       0.07 
freq.     721.73  E(vib)   ...       0.07 
freq.     724.15  E(vib)   ...       0.06 
freq.     724.54  E(vib)   ...       0.06 
freq.     755.68  E(vib)   ...       0.06 
freq.     756.03  E(vib)   ...       0.06 
freq.     756.21  E(vib)   ...       0.06 
freq.     756.34  E(vib)   ...       0.06 
freq.     779.60  E(vib)   ...       0.05 
freq.     782.73  E(vib)   ...       0.05 
freq.     804.29  E(vib)   ...       0.05 
freq.     805.36  E(vib)   ...       0.05 
freq.     805.66  E(vib)   ...       0.05 
freq.     806.11  E(vib)   ...       0.05 
freq.     809.06  E(vib)   ...       0.05 
freq.     814.05  E(vib)   ...       0.05 
freq.     830.69  E(vib)   ...       0.04 
freq.     831.35  E(vib)   ...       0.04 
freq.     835.16  E(vib)   ...       0.04 
freq.     835.37  E(vib)   ...       0.04 
freq.     835.79  E(vib)   ...       0.04 
freq.     836.16  E(vib)   ...       0.04 
freq.     836.72  E(vib)   ...       0.04 
freq.     837.04  E(vib)   ...       0.04 
freq.     849.54  E(vib)   ...       0.04 
freq.     849.79  E(vib)   ...       0.04 
freq.     849.96  E(vib)   ...       0.04 
freq.     850.05  E(vib)   ...       0.04 
freq.     883.92  E(vib)   ...       0.04 
freq.     884.90  E(vib)   ...       0.04 
freq.     885.39  E(vib)   ...       0.04 
freq.     888.69  E(vib)   ...       0.04 
freq.     924.20  E(vib)   ...       0.03 
freq.     937.54  E(vib)   ...       0.03 
freq.     945.48  E(vib)   ...       0.03 
freq.     953.31  E(vib)   ...       0.03 
freq.     954.78  E(vib)   ...       0.03 
freq.     954.79  E(vib)   ...       0.03 
freq.     955.21  E(vib)   ...       0.03 
freq.     955.42  E(vib)   ...       0.03 
freq.     956.30  E(vib)   ...       0.03 
freq.     958.39  E(vib)   ...       0.03 
freq.     964.35  E(vib)   ...       0.03 
freq.     965.70  E(vib)   ...       0.03 
freq.     967.22  E(vib)   ...       0.03 
freq.     968.15  E(vib)   ...       0.03 
freq.     968.28  E(vib)   ...       0.03 
freq.     969.18  E(vib)   ...       0.03 
freq.     969.92  E(vib)   ...       0.03 
freq.     970.83  E(vib)   ...       0.03 
freq.     984.07  E(vib)   ...       0.02 
freq.     985.40  E(vib)   ...       0.02 
freq.     987.55  E(vib)   ...       0.02 
freq.     989.35  E(vib)   ...       0.02 
freq.     994.69  E(vib)   ...       0.02 
freq.     995.09  E(vib)   ...       0.02 
freq.     996.26  E(vib)   ...       0.02 
freq.     997.41  E(vib)   ...       0.02 
freq.    1015.33  E(vib)   ...       0.02 
freq.    1015.42  E(vib)   ...       0.02 
freq.    1016.77  E(vib)   ...       0.02 
freq.    1017.07  E(vib)   ...       0.02 
freq.    1033.57  E(vib)   ...       0.02 
freq.    1033.91  E(vib)   ...       0.02 
freq.    1034.26  E(vib)   ...       0.02 
freq.    1034.39  E(vib)   ...       0.02 
freq.    1034.66  E(vib)   ...       0.02 
freq.    1034.87  E(vib)   ...       0.02 
freq.    1034.89  E(vib)   ...       0.02 
freq.    1035.27  E(vib)   ...       0.02 
freq.    1037.49  E(vib)   ...       0.02 
freq.    1037.63  E(vib)   ...       0.02 
freq.    1038.20  E(vib)   ...       0.02 
freq.    1038.47  E(vib)   ...       0.02 
freq.    1045.52  E(vib)   ...       0.02 
freq.    1046.97  E(vib)   ...       0.02 
freq.    1047.11  E(vib)   ...       0.02 
freq.    1047.21  E(vib)   ...       0.02 
freq.    1050.05  E(vib)   ...       0.02 
freq.    1050.35  E(vib)   ...       0.02 
freq.    1050.57  E(vib)   ...       0.02 
freq.    1050.73  E(vib)   ...       0.02 
freq.    1053.84  E(vib)   ...       0.02 
freq.    1054.29  E(vib)   ...       0.02 
freq.    1102.48  E(vib)   ...       0.02 
freq.    1103.11  E(vib)   ...       0.02 
freq.    1103.41  E(vib)   ...       0.02 
freq.    1103.80  E(vib)   ...       0.02 
freq.    1104.75  E(vib)   ...       0.02 
freq.    1105.08  E(vib)   ...       0.02 
freq.    1107.78  E(vib)   ...       0.02 
freq.    1109.06  E(vib)   ...       0.02 
freq.    1109.59  E(vib)   ...       0.02 
freq.    1119.20  E(vib)   ...       0.01 
freq.    1119.78  E(vib)   ...       0.01 
freq.    1120.87  E(vib)   ...       0.01 
freq.    1121.10  E(vib)   ...       0.01 
freq.    1144.98  E(vib)   ...       0.01 
freq.    1145.39  E(vib)   ...       0.01 
freq.    1145.64  E(vib)   ...       0.01 
freq.    1145.67  E(vib)   ...       0.01 
freq.    1146.43  E(vib)   ...       0.01 
freq.    1146.49  E(vib)   ...       0.01 
freq.    1148.27  E(vib)   ...       0.01 
freq.    1148.34  E(vib)   ...       0.01 
freq.    1168.67  E(vib)   ...       0.01 
freq.    1177.28  E(vib)   ...       0.01 
freq.    1177.47  E(vib)   ...       0.01 
freq.    1178.14  E(vib)   ...       0.01 
freq.    1178.15  E(vib)   ...       0.01 
freq.    1205.07  E(vib)   ...       0.01 
freq.    1205.12  E(vib)   ...       0.01 
freq.    1206.61  E(vib)   ...       0.01 
freq.    1207.10  E(vib)   ...       0.01 
freq.    1214.07  E(vib)   ...       0.01 
freq.    1214.58  E(vib)   ...       0.01 
freq.    1214.76  E(vib)   ...       0.01 
freq.    1215.36  E(vib)   ...       0.01 
freq.    1216.36  E(vib)   ...       0.01 
freq.    1217.37  E(vib)   ...       0.01 
freq.    1220.90  E(vib)   ...       0.01 
freq.    1221.61  E(vib)   ...       0.01 
freq.    1225.03  E(vib)   ...       0.01 
freq.    1225.50  E(vib)   ...       0.01 
freq.    1227.64  E(vib)   ...       0.01 
freq.    1228.52  E(vib)   ...       0.01 
freq.    1237.16  E(vib)   ...       0.01 
freq.    1332.46  E(vib)   ...       0.01 
freq.    1333.83  E(vib)   ...       0.01 
freq.    1335.86  E(vib)   ...       0.01 
freq.    1336.56  E(vib)   ...       0.01 
freq.    1339.06  E(vib)   ...       0.01 
freq.    1339.57  E(vib)   ...       0.01 
freq.    1342.98  E(vib)   ...       0.01 
freq.    1343.91  E(vib)   ...       0.01 
freq.    1344.84  E(vib)   ...       0.01 
freq.    1345.27  E(vib)   ...       0.01 
freq.    1348.55  E(vib)   ...       0.01 
freq.    1349.91  E(vib)   ...       0.01 
freq.    1355.30  E(vib)   ...       0.01 
freq.    1367.00  E(vib)   ...       0.01 
freq.    1368.51  E(vib)   ...       0.01 
freq.    1368.94  E(vib)   ...       0.01 
freq.    1369.48  E(vib)   ...       0.01 
freq.    1370.26  E(vib)   ...       0.01 
freq.    1370.62  E(vib)   ...       0.01 
freq.    1372.59  E(vib)   ...       0.01 
freq.    1372.76  E(vib)   ...       0.01 
freq.    1374.64  E(vib)   ...       0.01 
freq.    1375.85  E(vib)   ...       0.01 
freq.    1376.26  E(vib)   ...       0.01 
freq.    1376.70  E(vib)   ...       0.01 
freq.    1381.19  E(vib)   ...       0.01 
freq.    1383.07  E(vib)   ...       0.01 
freq.    1383.90  E(vib)   ...       0.00 
freq.    1387.07  E(vib)   ...       0.00 
freq.    1388.33  E(vib)   ...       0.00 
freq.    1411.85  E(vib)   ...       0.00 
freq.    1456.59  E(vib)   ...       0.00 
freq.    1456.95  E(vib)   ...       0.00 
freq.    1457.21  E(vib)   ...       0.00 
freq.    1457.95  E(vib)   ...       0.00 
freq.    1461.12  E(vib)   ...       0.00 
freq.    1461.22  E(vib)   ...       0.00 
freq.    1462.44  E(vib)   ...       0.00 
freq.    1462.93  E(vib)   ...       0.00 
freq.    1473.93  E(vib)   ...       0.00 
freq.    1474.90  E(vib)   ...       0.00 
freq.    1476.90  E(vib)   ...       0.00 
freq.    1478.39  E(vib)   ...       0.00 
freq.    1485.45  E(vib)   ...       0.00 
freq.    1485.71  E(vib)   ...       0.00 
freq.    1487.01  E(vib)   ...       0.00 
freq.    1488.06  E(vib)   ...       0.00 
freq.    1535.89  E(vib)   ...       0.00 
freq.    1537.43  E(vib)   ...       0.00 
freq.    1538.59  E(vib)   ...       0.00 
freq.    1538.94  E(vib)   ...       0.00 
freq.    1539.61  E(vib)   ...       0.00 
freq.    1540.14  E(vib)   ...       0.00 
freq.    1542.04  E(vib)   ...       0.00 
freq.    1543.11  E(vib)   ...       0.00 
freq.    1639.71  E(vib)   ...       0.00 
freq.    1639.94  E(vib)   ...       0.00 
freq.    1640.18  E(vib)   ...       0.00 
freq.    1640.90  E(vib)   ...       0.00 
freq.    1643.35  E(vib)   ...       0.00 
freq.    1643.62  E(vib)   ...       0.00 
freq.    1644.41  E(vib)   ...       0.00 
freq.    1645.28  E(vib)   ...       0.00 
freq.    1645.65  E(vib)   ...       0.00 
freq.    1645.91  E(vib)   ...       0.00 
freq.    1646.34  E(vib)   ...       0.00 
freq.    1647.46  E(vib)   ...       0.00 
freq.    1655.04  E(vib)   ...       0.00 
freq.    1655.32  E(vib)   ...       0.00 
freq.    1655.62  E(vib)   ...       0.00 
freq.    1656.35  E(vib)   ...       0.00 
freq.    1681.49  E(vib)   ...       0.00 
freq.    1682.09  E(vib)   ...       0.00 
freq.    1683.58  E(vib)   ...       0.00 
freq.    1683.94  E(vib)   ...       0.00 
freq.    1684.44  E(vib)   ...       0.00 
freq.    1685.26  E(vib)   ...       0.00 
freq.    1686.00  E(vib)   ...       0.00 
freq.    1686.91  E(vib)   ...       0.00 
freq.    1687.51  E(vib)   ...       0.00 
freq.    1711.07  E(vib)   ...       0.00 
freq.    1753.31  E(vib)   ...       0.00 
freq.    1776.94  E(vib)   ...       0.00 
freq.    2340.60  E(vib)   ...       0.00 
freq.    2342.25  E(vib)   ...       0.00 
freq.    2343.67  E(vib)   ...       0.00 
freq.    2344.77  E(vib)   ...       0.00 
freq.    2348.60  E(vib)   ...       0.00 
freq.    2349.36  E(vib)   ...       0.00 
freq.    2352.77  E(vib)   ...       0.00 
freq.    2355.99  E(vib)   ...       0.00 
freq.    3204.35  E(vib)   ...       0.00 
freq.    3206.55  E(vib)   ...       0.00 
freq.    3207.14  E(vib)   ...       0.00 
freq.    3208.04  E(vib)   ...       0.00 
freq.    3208.52  E(vib)   ...       0.00 
freq.    3209.51  E(vib)   ...       0.00 
freq.    3217.57  E(vib)   ...       0.00 
freq.    3219.05  E(vib)   ...       0.00 
freq.    3220.25  E(vib)   ...       0.00 
freq.    3220.95  E(vib)   ...       0.00 
freq.    3221.30  E(vib)   ...       0.00 
freq.    3222.52  E(vib)   ...       0.00 
freq.    3228.51  E(vib)   ...       0.00 
freq.    3229.41  E(vib)   ...       0.00 
freq.    3229.47  E(vib)   ...       0.00 
freq.    3229.87  E(vib)   ...       0.00 
freq.    3229.94  E(vib)   ...       0.00 
freq.    3230.63  E(vib)   ...       0.00 
freq.    3231.35  E(vib)   ...       0.00 
freq.    3231.43  E(vib)   ...       0.00 
freq.    3231.53  E(vib)   ...       0.00 
freq.    3231.79  E(vib)   ...       0.00 
freq.    3232.29  E(vib)   ...       0.00 
freq.    3232.61  E(vib)   ...       0.00 
freq.    3237.51  E(vib)   ...       0.00 
freq.    3237.60  E(vib)   ...       0.00 
freq.    3237.95  E(vib)   ...       0.00 
freq.    3238.27  E(vib)   ...       0.00 
freq.    3239.51  E(vib)   ...       0.00 
freq.    3239.74  E(vib)   ...       0.00 
freq.    3241.17  E(vib)   ...       0.00 
freq.    3242.13  E(vib)   ...       0.00 
freq.    3243.92  E(vib)   ...       0.00 
freq.    3244.20  E(vib)   ...       0.00 
freq.    3245.61  E(vib)   ...       0.00 
freq.    3245.75  E(vib)   ...       0.00 
freq.    3248.22  E(vib)   ...       0.00 
freq.    3248.58  E(vib)   ...       0.00 
freq.    3248.69  E(vib)   ...       0.00 
freq.    3248.83  E(vib)   ...       0.00 
freq.    3249.28  E(vib)   ...       0.00 
freq.    3249.51  E(vib)   ...       0.00 
freq.    3249.84  E(vib)   ...       0.00 
freq.    3250.21  E(vib)   ...       0.00 
freq.    3251.58  E(vib)   ...       0.00 
freq.    3252.07  E(vib)   ...       0.00 
freq.    3253.06  E(vib)   ...       0.00 
freq.    3253.58  E(vib)   ...       0.00 

------------
INNER ENERGY
------------

The inner energy is: U= E(el) + E(ZPE) + E(vib) + E(rot) + E(trans)
    E(el)   - is the total energy from the electronic structure calculation
              = E(kin-el) + E(nuc-el) + E(el-el) + E(nuc-nuc)
    E(ZPE)  - the the zero temperature vibrational energy from the frequency calculation
    E(vib)  - the the finite temperature correction to E(ZPE) due to population
              of excited vibrational states
    E(rot)  - is the rotational thermal energy
    E(trans)- is the translational thermal energy

Summary of contributions to the inner energy U:
Electronic energy                ...  -4208.21110270 Eh
Zero point energy                ...      1.10189717 Eh     691.45 kcal/mol
Thermal vibrational correction   ...      0.07837628 Eh      49.18 kcal/mol
Thermal rotational correction    ...      0.00141627 Eh       0.89 kcal/mol
Thermal translational correction ...      0.00141627 Eh       0.89 kcal/mol
-----------------------------------------------------------------------
Total thermal energy                  -4207.02799671 Eh


Summary of corrections to the electronic energy:
(perhaps to be used in another calculation)
Total thermal correction                  0.08120882 Eh      50.96 kcal/mol
Non-thermal (ZPE) correction              1.10189717 Eh     691.45 kcal/mol
-----------------------------------------------------------------------
Total correction                          1.18310599 Eh     742.41 kcal/mol


--------
ENTHALPY
--------

The enthalpy is H = U + kB*T
                kB is Boltzmann's constant
Total free energy                 ...  -4207.02799671 Eh 
Thermal Enthalpy correction       ...      0.00094421 Eh       0.59 kcal/mol
-----------------------------------------------------------------------
Total Enthalpy                    ...  -4207.02705250 Eh


Vibrational entropy computed according to the QRRHO of S. Grimme
Chem.Eur.J. 2012 18 9955


-------
ENTROPY
-------

The entropy contributions are T*S = T*(S(el)+S(vib)+S(rot)+S(trans)
     S(el)   - electronic entropy
     S(vib)  - vibrational entropy
     S(rot)  - rotational entropy
     S(trans)- translational entropy
The entropies will be listed as mutliplied by the temperature to get
units of energy

Electronic entropy                ...      0.00000000 Eh      0.00 kcal/mol
Vibrational entropy               ...      0.14413034 Eh     90.44 kcal/mol
Rotational entropy                ...      0.01942287 Eh     12.19 kcal/mol
Translational entropy             ...      0.02265481 Eh     14.22 kcal/mol
-----------------------------------------------------------------------
Final entropy term                ...      0.18620803 Eh    116.85 kcal/mol


CAUTION: The rotational entropy is not quite correctly treated here
         because it includes a symmetry number that is not yet correctly
         implemented in ORCA!
For a nonlinear molecule the correct rotational entropy is:
    S(rot) = R*(ln(qrot/sn)+1.5)
    R    = 8.31441 J/mol/K = 1.987191683e-3 kcal/mol/K
    qrot = 574922319.7270595
    sn is the rotational symmetry number. We have assumed 3 here
       if it is different for your molecule then you should correct
       the printed rotational entropy by manually evaluating the equation
       as given above

For convenience we print out the resulting values for sn=1 - 12:
 sn= 1  qrot/sn= 574922319.7271 T*S(rot)=    12.84 kcal/mol T*S(tot)=   117.50 kcal/mol
 sn= 2  qrot/sn= 287461159.8635 T*S(rot)=    12.43 kcal/mol T*S(tot)=   117.09 kcal/mol
 sn= 3  qrot/sn= 191640773.2424 T*S(rot)=    12.19 kcal/mol T*S(tot)=   116.85 kcal/mol
 sn= 4  qrot/sn= 143730579.9318 T*S(rot)=    12.02 kcal/mol T*S(tot)=   116.68 kcal/mol
 sn= 5  qrot/sn= 114984463.9454 T*S(rot)=    11.89 kcal/mol T*S(tot)=   116.54 kcal/mol
 sn= 6  qrot/sn= 95820386.6212 T*S(rot)=    11.78 kcal/mol T*S(tot)=   116.44 kcal/mol
 sn= 7  qrot/sn= 82131759.9610 T*S(rot)=    11.69 kcal/mol T*S(tot)=   116.35 kcal/mol
 sn= 8  qrot/sn= 71865289.9659 T*S(rot)=    11.61 kcal/mol T*S(tot)=   116.27 kcal/mol
 sn= 9  qrot/sn= 63880257.7475 T*S(rot)=    11.54 kcal/mol T*S(tot)=   116.20 kcal/mol
 sn=10  qrot/sn= 57492231.9727 T*S(rot)=    11.47 kcal/mol T*S(tot)=   116.13 kcal/mol
 sn=11  qrot/sn= 52265665.4297 T*S(rot)=    11.42 kcal/mol T*S(tot)=   116.08 kcal/mol
 sn=12  qrot/sn= 47910193.3106 T*S(rot)=    11.37 kcal/mol T*S(tot)=   116.03 kcal/mol


-------------------
GIBBS FREE ENTHALPY
-------------------

The Gibbs free enthalpy is G = H - T*S

Total enthalpy                    ...  -4207.02705250 Eh 
Total entropy correction          ...     -0.18620803 Eh   -116.85 kcal/mol
-----------------------------------------------------------------------
Final Gibbs free enthalpy         ...  -4207.21326053 Eh

For completeness - the Gibbs free enthalpy minus the electronic energy
G-E(el)                           ...      0.99784216 Eh    626.15 kcal/mol


Timings for individual modules:

Sum of individual times         ...    49765.427 sec (= 829.424 min)
GTO integral calculation        ...        7.888 sec (=   0.131 min)   0.0 %
SCF iterations                  ...      674.244 sec (=  11.237 min)   1.4 %
Analytical frequency calculation...    49083.296 sec (= 818.055 min)  98.6 %
                             ****ORCA TERMINATED NORMALLY****
TOTAL RUN TIME: 0 days 13 hours 49 minutes 37 seconds 50 msec
