
                                 *****************
                                 * O   R   C   A *
                                 *****************

           --- An Ab Initio, DFT and Semiempirical electronic structure package ---

                  #######################################################
                  #                        -***-                        #
                  #          Department of theory and spectroscopy      #
                  #               Directorship: Frank Neese             #
                  #        Max Planck Institute fuer Kohlenforschung    #
                  #                Kaiser Wilhelm Platz 1               #
                  #                 D-45470 Muelheim/Ruhr               #
                  #                      Germany                        #
                  #                                                     #
                  #                  All rights reserved                #
                  #                        -***-                        #
                  #######################################################


                         Program Version 4.2.1 -  RELEASE  -


 With contributions from (in alphabetic order):
   Daniel Aravena         : Magnetic Suceptibility
   Michael Atanasov       : Ab Initio Ligand Field Theory (pilot matlab implementation)
   Alexander A. Auer      : GIAO ZORA, VPT2
   Ute Becker             : Parallelization
   Giovanni Bistoni       : ED, misc. LED, open-shell LED, HFLD
   Martin Brehm           : Molecular dynamics
   Dmytro Bykov           : SCF Hessian
   Vijay G. Chilkuri      : MRCI spin determinant printing, contributions to CSF-ICE
   Dipayan Datta          : RHF DLPNO-CCSD density
   Achintya Kumar Dutta   : EOM-CC, STEOM-CC
   Dmitry Ganyushin       : Spin-Orbit,Spin-Spin,Magnetic field MRCI
   Miquel Garcia          : C-PCM Hessian, Gaussian charge scheme
   Yang Guo               : DLPNO-NEVPT2, CIM, IAO-localization
   Andreas Hansen         : Spin unrestricted coupled pair/coupled cluster methods
   Benjamin Helmich-Paris : CASSCF linear response (MC-RPA)
   Lee Huntington         : MR-EOM, pCC
   Robert Izsak           : Overlap fitted RIJCOSX, COSX-SCS-MP3, EOM
   Christian Kollmar      : KDIIS, OOCD, Brueckner-CCSD(T), CCSD density
   Simone Kossmann        : Meta GGA functionals, TD-DFT gradient, OOMP2, MP2 Hessian
   Martin Krupicka        : AUTO-CI
   Lucas Lang             : DCDCAS
   Dagmar Lenk            : GEPOL surface, SMD
   Dimitrios Liakos       : Extrapolation schemes; Compound Job, initial MDCI parallelization
   Dimitrios Manganas     : Further ROCIS development; embedding schemes
   Dimitrios Pantazis     : SARC Basis sets
   Taras Petrenko         : DFT Hessian,TD-DFT gradient, ASA, ECA, R-Raman, ABS, FL, XAS/XES, NRVS
   Peter Pinski           : DLPNO-MP2, DLPNO-MP2 Gradient
   Christoph Reimann      : Effective Core Potentials
   Marius Retegan         : Local ZFS, SOC
   Christoph Riplinger    : Optimizer, TS searches, QM/MM, DLPNO-CCSD(T), (RO)-DLPNO pert. Triples
   Tobias Risthaus        : Range-separated hybrids, TD-DFT gradient, RPA, STAB
   Michael Roemelt        : Original ROCIS implementation
   Masaaki Saitow         : Open-shell DLPNO-CCSD energy and density
   Barbara Sandhoefer     : DKH picture change effects
   Avijit Sen             : IP-ROCIS
   Kantharuban Sivalingam : CASSCF convergence, NEVPT2, FIC-MRCI
   Bernardo de Souza      : ESD, SOC TD-DFT
   Georgi Stoychev        : AutoAux, RI-MP2 NMR
   Willem Van den Heuvel  : Paramagnetic NMR
   Boris Wezisla          : Elementary symmetry handling
   Frank Wennmohs         : Technical directorship


 We gratefully acknowledge several colleagues who have allowed us to
 interface, adapt or use parts of their codes:
   Stefan Grimme, W. Hujo, H. Kruse,             : VdW corrections, initial TS optimization,
                  C. Bannwarth                     DFT functionals, gCP, sTDA/sTD-DF
   Ed Valeev, F. Pavosevic, A. Kumar             : LibInt (2-el integral package), F12 methods
   Garnet Chan, S. Sharma, J. Yang, R. Olivares  : DMRG
   Ulf Ekstrom                                   : XCFun DFT Library
   Mihaly Kallay                                 : mrcc  (arbitrary order and MRCC methods)
   Andreas Klamt, Michael Diedenhofen            : otool_cosmo (COSMO solvation model)
   Jiri Pittner, Ondrej Demel                    : Mk-CCSD
   Frank Weinhold                                : gennbo (NPA and NBO analysis)
   Christopher J. Cramer and Donald G. Truhlar   : smd solvation model
   Lars Goerigk                                  : TD-DFT with DH, B97 family of functionals
   V. Asgeirsson, H. Jonsson                     : NEB implementation
   FAccTs GmbH                                   : IRC, NEB, NEB-TS, Multilevel, MM, QM/MM, CI optimization
   S Lehtola, MJT Oliveira, MAL Marques          : LibXC Library


 Your calculation uses the libint2 library for the computation of 2-el integrals
 For citations please refer to: http://libint.valeyev.net

 Your ORCA version has been built with support for libXC version: 4.2.3
 For citations please refer to: https://tddft.org/programs/libxc/

 This ORCA versions uses:
   CBLAS   interface :  Fast vector & matrix operations
   LAPACKE interface :  Fast linear algebra routines
   SCALAPACK package :  Parallel linear algebra routines


Your calculation utilizes the atom-pairwise dispersion correction
with the Becke-Johnson damping scheme (D3BJ)
Cite in your paper:
S.Grimme, S.Ehrlich, L.Goerigk, J Comput Chem, (2011), 32, 1456–1465 
S.Grimme, J.Antony, S.Ehrlich and H.Krieg, J.Chem.Phys., 132, (2010), 154104 
   

----- Orbital basis set information -----
Your calculation utilizes the basis: def2-SVP
   F. Weigend and R. Ahlrichs, Phys. Chem. Chem. Phys. 7, 3297 (2005).

----- AuxJ basis set information -----
Your calculation utilizes the auxiliary basis: def2/J
   F. Weigend, Phys. Chem. Chem. Phys. 8, 1057 (2006).

================================================================================
                                        WARNINGS
                       Please study these warnings very carefully!
================================================================================


WARNING: Geometry Optimization
  ===> : Switching off AutoStart
         For restart on a previous wavefunction, please use MOREAD

INFO   : the flag for use of LIBINT has been found!

================================================================================
                                       INPUT FILE
================================================================================
NAME = quinone.inp
|  1> ! Opt Freq PBE0 D3BJ def2-SVP RIJCOSX def2/J PAL8
|  2> %maxcore 4000
|  3> *xyz 0 1
|  4> O          0.78510        3.05520        1.01990
|  5> C          0.85940        4.27980        1.00990
|  6> C          2.16300        4.96860        1.12090
|  7> H          3.06660        4.36020        1.22670
|  8> C          2.23060        6.30960        1.10430
|  9> H          3.19210        6.82180        1.19590
| 10> C          1.01630        7.14530        0.97130
| 11> O          1.09400        8.36910        0.94480
| 12> C         -0.28790        6.45620        0.86550
| 13> H         -1.19220        7.06330        0.75850
| 14> C         -0.35590        5.11510        0.88660
| 15> H         -1.31820        4.60340        0.79940
| 16> *
| 17> 
| 18>                          ****END OF INPUT****
================================================================================

                       *****************************
                       * Geometry Optimization Run *
                       *****************************

Geometry optimization settings:
Update method            Update   .... BFGS
Choice of coordinates    CoordSys .... Z-matrix Internals
Initial Hessian          InHess   .... Almoef's Model

Convergence Tolerances:
Energy Change            TolE     ....  5.0000e-06 Eh
Max. Gradient            TolMAXG  ....  3.0000e-04 Eh/bohr
RMS Gradient             TolRMSG  ....  1.0000e-04 Eh/bohr
Max. Displacement        TolMAXD  ....  4.0000e-03 bohr
RMS Displacement         TolRMSD  ....  2.0000e-03 bohr
Strict Convergence                ....  False
------------------------------------------------------------------------------
                        ORCA OPTIMIZATION COORDINATE SETUP
------------------------------------------------------------------------------

The optimization will be done in new redundant internal coordinates
Making redundant internal coordinates   ...  (new redundants) done
Evaluating the initial hessian          ...  (Almloef) done
Evaluating the coordinates              ...  done
Calculating the B-matrix                .... done
Calculating the G-matrix                .... done
Diagonalizing the G-matrix              .... done
The first mode is                       ....   24
The number of degrees of freedom        ....   30

    -----------------------------------------------------------------
                    Redundant Internal Coordinates


    -----------------------------------------------------------------
         Definition                    Initial Value    Approx d2E/dq
    -----------------------------------------------------------------
      1. B(C   1,O   0)                  1.2269         1.018832   
      2. B(C   2,C   1)                  1.4786         0.451281   
      3. B(H   3,C   2)                  1.0945         0.354251   
      4. B(C   4,C   2)                  1.3428         0.743078   
      5. B(H   5,C   4)                  1.0933         0.355811   
      6. B(C   6,C   4)                  1.4801         0.448784   
      7. B(O   7,C   6)                  1.2266         1.020114   
      8. B(C   8,C   6)                  1.4788         0.450804   
      9. B(H   9,C   8)                  1.0944         0.354287   
     10. B(C  10,C   8)                  1.3430         0.742578   
     11. B(C  10,C   1)                  1.4798         0.449188   
     12. B(H  11,C  10)                  1.0934         0.355667   
     13. A(C   2,C   1,C  10)          117.8633         0.387539   
     14. A(O   0,C   1,C   2)          121.1828         0.445382   
     15. A(O   0,C   1,C  10)          120.9539         0.445007   
     16. A(C   1,C   2,C   4)          120.5766         0.423565   
     17. A(H   3,C   2,C   4)          120.9825         0.362933   
     18. A(C   1,C   2,H   3)          118.4381         0.333693   
     19. A(H   5,C   4,C   6)          117.6810         0.333629   
     20. A(C   2,C   4,C   6)          121.5797         0.423145   
     21. A(C   2,C   4,H   5)          120.7382         0.363205   
     22. A(O   7,C   6,C   8)          121.2818         0.445398   
     23. A(C   4,C   6,C   8)          117.8312         0.387407   
     24. A(C   4,C   6,O   7)          120.8864         0.445036   
     25. A(H   9,C   8,C  10)          120.9064         0.362897   
     26. A(C   6,C   8,C  10)          120.5869         0.423434   
     27. A(C   6,C   8,H   9)          118.5031         0.333640   
     28. A(C   8,C  10,H  11)          120.7074         0.363139   
     29. A(C   1,C  10,H  11)          117.7279         0.333657   
     30. A(C   1,C  10,C   8)          121.5600         0.423162   
     31. D(C   4,C   2,C   1,O   0)    179.7840         0.013881   
     32. D(C   4,C   2,C   1,C  10)     -0.2392         0.013881   
     33. D(H   3,C   2,C   1,C  10)    179.1527         0.013881   
     34. D(H   3,C   2,C   1,O   0)     -0.8242         0.013881   
     35. D(C   6,C   4,C   2,C   1)     -0.1946         0.039308   
     36. D(H   5,C   4,C   2,C   1)    179.4051         0.039308   
     37. D(H   5,C   4,C   2,H   3)      0.0289         0.039308   
     38. D(C   6,C   4,C   2,H   3)   -179.5708         0.039308   
     39. D(C   8,C   6,C   4,H   5)   -179.1930         0.013731   
     40. D(C   8,C   6,C   4,C   2)      0.4184         0.013731   
     41. D(O   7,C   6,C   4,H   5)      1.0880         0.013731   
     42. D(O   7,C   6,C   4,C   2)   -179.3005         0.013731   
     43. D(C  10,C   8,C   6,C   4)     -0.1903         0.013852   
     44. D(H   9,C   8,C   6,O   7)      0.2105         0.013852   
     45. D(H   9,C   8,C   6,C   4)   -179.5072         0.013852   
     46. D(C  10,C   8,C   6,O   7)    179.5275         0.013852   
     47. D(H  11,C  10,C   8,H   9)     -0.1412         0.039250   
     48. D(C   1,C  10,C   8,H   9)    179.0553         0.039250   
     49. D(C   1,C  10,C   8,C   6)     -0.2451         0.039250   
     50. D(H  11,C  10,C   1,C   2)    179.6873         0.013755   
     51. D(H  11,C  10,C   1,O   0)     -0.3358         0.013755   
     52. D(H  11,C  10,C   8,C   6)   -179.4416         0.039250   
     53. D(C   8,C  10,C   1,C   2)      0.4677         0.013755   
     54. D(C   8,C  10,C   1,O   0)   -179.5554         0.013755   
    -----------------------------------------------------------------

Number of atoms                         .... 12
Number of degrees of freedom            .... 54

         *************************************************************
         *                GEOMETRY OPTIMIZATION CYCLE   1            *
         *************************************************************
---------------------------------
CARTESIAN COORDINATES (ANGSTROEM)
---------------------------------
  O      0.785100    3.055200    1.019900
  C      0.859400    4.279800    1.009900
  C      2.163000    4.968600    1.120900
  H      3.066600    4.360200    1.226700
  C      2.230600    6.309600    1.104300
  H      3.192100    6.821800    1.195900
  C      1.016300    7.145300    0.971300
  O      1.094000    8.369100    0.944800
  C     -0.287900    6.456200    0.865500
  H     -1.192200    7.063300    0.758500
  C     -0.355900    5.115100    0.886600
  H     -1.318200    4.603400    0.799400

----------------------------
CARTESIAN COORDINATES (A.U.)
----------------------------
  NO LB      ZA    FRAG     MASS         X           Y           Z
   0 O     8.0000    0    15.999    1.483624    5.773491    1.927332
   1 C     6.0000    0    12.011    1.624031    8.087650    1.908434
   2 C     6.0000    0    12.011    4.087478    9.389293    2.118194
   3 H     1.0000    0     1.008    5.795034    8.239584    2.318127
   4 C     6.0000    0    12.011    4.215223   11.923416    2.086825
   5 H     1.0000    0     1.008    6.032195   12.891334    2.259923
   6 C     6.0000    0    12.011    1.920529   13.502660    1.835491
   7 O     8.0000    0    15.999    2.067360   15.815307    1.785413
   8 C     6.0000    0    12.011   -0.544052   12.200450    1.635558
   9 H     1.0000    0     1.008   -2.252931   13.347703    1.433357
  10 C     6.0000    0    12.011   -0.672554    9.666138    1.675431
  11 H     1.0000    0     1.008   -2.491037    8.699165    1.510647

--------------------------------
INTERNAL COORDINATES (ANGSTROEM)
--------------------------------
 O      0   0   0     0.000000000000     0.00000000     0.00000000
 C      1   0   0     1.226892680718     0.00000000     0.00000000
 C      2   1   0     1.478559907478   121.18276409     0.00000000
 H      3   2   1     1.094457472906   118.43807556   359.17582771
 C      3   2   1     1.342805391708   120.57658274   179.78399246
 H      5   3   2     1.093261931103   120.73816376   179.40512187
 C      5   3   2     1.480070261846   121.57972603   359.80543804
 O      7   5   3     1.226550439240   120.88639553   180.69949952
 C      7   5   3     1.478847554686   117.83120399     0.41842011
 H      9   7   5     1.094430399797   118.50308721   180.49276738
 C      9   7   5     1.342988614993   120.58694908   359.80970269
 H     11   9   7     1.093371858061   120.70741068   180.55839385

---------------------------
INTERNAL COORDINATES (A.U.)
---------------------------
 O      0   0   0     0.000000000000     0.00000000     0.00000000
 C      1   0   0     2.318491162270     0.00000000     0.00000000
 C      2   1   0     2.794073297729   121.18276409     0.00000000
 H      3   2   1     2.068224889016   118.43807556   359.17582771
 C      3   2   1     2.537534441481   120.57658274   179.78399246
 H      5   3   2     2.065965642427   120.73816376   179.40512187
 C      5   3   2     2.796927453849   121.57972603   359.80543804
 O      7   5   3     2.317844419605   120.88639553   180.69949952
 C      7   5   3     2.794616872175   117.83120399     0.41842011
 H      9   7   5     2.068173728254   118.50308721   180.49276738
 C      9   7   5     2.537880683310   120.58694908   359.80970269
 H     11   9   7     2.066173374272   120.70741068   180.55839385

---------------------
BASIS SET INFORMATION
---------------------
There are 3 groups of distinct atoms

 Group   1 Type O   : 7s4p1d contracted to 3s2p1d pattern {511/31/1}
 Group   2 Type C   : 7s4p1d contracted to 3s2p1d pattern {511/31/1}
 Group   3 Type H   : 4s1p contracted to 2s1p pattern {31/1}

Atom   0O    basis set group =>   1
Atom   1C    basis set group =>   2
Atom   2C    basis set group =>   2
Atom   3H    basis set group =>   3
Atom   4C    basis set group =>   2
Atom   5H    basis set group =>   3
Atom   6C    basis set group =>   2
Atom   7O    basis set group =>   1
Atom   8C    basis set group =>   2
Atom   9H    basis set group =>   3
Atom  10C    basis set group =>   2
Atom  11H    basis set group =>   3
---------------------------------
AUXILIARY/J BASIS SET INFORMATION
---------------------------------
There are 3 groups of distinct atoms

 Group   1 Type O   : 12s5p4d2f1g contracted to 6s4p3d1f1g pattern {711111/2111/211/2/1}
 Group   2 Type C   : 12s5p4d2f1g contracted to 6s4p3d1f1g pattern {711111/2111/211/2/1}
 Group   3 Type H   : 5s2p1d contracted to 3s1p1d pattern {311/2/1}

Atom   0O    basis set group =>   1
Atom   1C    basis set group =>   2
Atom   2C    basis set group =>   2
Atom   3H    basis set group =>   3
Atom   4C    basis set group =>   2
Atom   5H    basis set group =>   3
Atom   6C    basis set group =>   2
Atom   7O    basis set group =>   1
Atom   8C    basis set group =>   2
Atom   9H    basis set group =>   3
Atom  10C    basis set group =>   2
Atom  11H    basis set group =>   3
[1618306020.258843] [comp0807:151070:0]            sys.c:618  UCX  ERROR shmget(size=2097152 flags=0xfb0) for mm_recv_desc failed: Operation not permitted, please check shared memory limits by 'ipcs -l'
[1618306020.281791] [comp0807:151071:0]            sys.c:618  UCX  ERROR shmget(size=2097152 flags=0xfb0) for mm_recv_desc failed: Operation not permitted, please check shared memory limits by 'ipcs -l'
[1618306020.456768] [comp0807:151080:0]            sys.c:618  UCX  ERROR shmget(size=2097152 flags=0xfb0) for mm_recv_desc failed: Operation not permitted, please check shared memory limits by 'ipcs -l'
[1618306020.461719] [comp0807:151078:0]            sys.c:618  UCX  ERROR shmget(size=2097152 flags=0xfb0) for mm_recv_desc failed: Operation not permitted, please check shared memory limits by 'ipcs -l'
[1618306020.482659] [comp0807:151072:0]            sys.c:618  UCX  ERROR shmget(size=2097152 flags=0xfb0) for mm_recv_desc failed: Operation not permitted, please check shared memory limits by 'ipcs -l'
[1618306020.484615] [comp0807:151081:0]            sys.c:618  UCX  ERROR shmget(size=2097152 flags=0xfb0) for mm_recv_desc failed: Operation not permitted, please check shared memory limits by 'ipcs -l'
[1618306020.485457] [comp0807:151079:0]            sys.c:618  UCX  ERROR shmget(size=2097152 flags=0xfb0) for mm_recv_desc failed: Operation not permitted, please check shared memory limits by 'ipcs -l'
[1618306020.485501] [comp0807:151077:0]            sys.c:618  UCX  ERROR shmget(size=2097152 flags=0xfb0) for mm_recv_desc failed: Operation not permitted, please check shared memory limits by 'ipcs -l'
[1618306020.494028] [comp0807:151070:0]            sys.c:618  UCX  ERROR shmget(size=2097152 flags=0xb80) for ucp_am_bufs failed: Operation not permitted, please check shared memory limits by 'ipcs -l'
[1618306020.494808] [comp0807:151078:0]            sys.c:618  UCX  ERROR shmget(size=2097152 flags=0xb80) for ucp_am_bufs failed: Operation not permitted, please check shared memory limits by 'ipcs -l'
[1618306020.494814] [comp0807:151080:0]            sys.c:618  UCX  ERROR shmget(size=2097152 flags=0xb80) for ucp_am_bufs failed: Operation not permitted, please check shared memory limits by 'ipcs -l'
[1618306020.494822] [comp0807:151081:0]            sys.c:618  UCX  ERROR shmget(size=2097152 flags=0xb80) for ucp_am_bufs failed: Operation not permitted, please check shared memory limits by 'ipcs -l'
[1618306020.494816] [comp0807:151071:0]            sys.c:618  UCX  ERROR shmget(size=2097152 flags=0xb80) for ucp_am_bufs failed: Operation not permitted, please check shared memory limits by 'ipcs -l'
[1618306020.495501] [comp0807:151079:0]            sys.c:618  UCX  ERROR shmget(size=2097152 flags=0xb80) for ucp_am_bufs failed: Operation not permitted, please check shared memory limits by 'ipcs -l'
[1618306020.499588] [comp0807:151072:0]            sys.c:618  UCX  ERROR shmget(size=2097152 flags=0xb80) for ucp_am_bufs failed: Operation not permitted, please check shared memory limits by 'ipcs -l'
[1618306020.501044] [comp0807:151077:0]            sys.c:618  UCX  ERROR shmget(size=2097152 flags=0xb80) for ucp_am_bufs failed: Operation not permitted, please check shared memory limits by 'ipcs -l'


           ************************************************************
           *        Program running with 8 parallel MPI-processes     *
           *              working on a common directory               *
           ************************************************************
------------------------------------------------------------------------------
                           ORCA GTO INTEGRAL CALCULATION
                           -- RI-GTO INTEGRALS CHOSEN --
------------------------------------------------------------------------------

                         BASIS SET STATISTICS AND STARTUP INFO

Gaussian basis set:
 # of primitive gaussian shells          ...  116
 # of primitive gaussian functions       ...  220
 # of contracted shells                  ...   60
 # of contracted basis functions         ...  132
 Highest angular momentum                ...    2
 Maximum contraction depth               ...    5
Auxiliary gaussian basis set:
 # of primitive gaussian shells          ...  224
 # of primitive gaussian functions       ...  624
 # of contracted shells                  ...  140
 # of contracted aux-basis functions     ...  436
 Highest angular momentum                ...    4
 Maximum contraction depth               ...    7
Ratio of auxiliary to basis functions    ...  3.30
Integral package used                  ... LIBINT
 One Electron integrals                  ... done
 Ordering auxiliary basis shells         ... done
 Integral threshhold             Thresh  ...  2.500e-11
 Primitive cut-off               TCut    ...  2.500e-12
 Pre-screening matrix                    ... done
 Shell pair data                         ... 
 Ordering of the shell pairs             ... done (   0.000 sec) 1745 of 1830 pairs
 Determination of significant pairs      ... done (   0.000 sec)
 Creation of shell pair data             ... done (   0.000 sec)
 Storage of shell pair data              ... done (   0.006 sec)
 Shell pair data done in (   0.006 sec)
 Computing two index integrals           ... done
 Cholesky decomposition of the V-matrix  ... done


Timings:
 Total evaluation time                   ...   0.199 sec (  0.003 min)
 One electron matrix time                ...   0.022 sec (  0.000 min) = 11.1%
 Schwartz matrix evaluation time         ...   0.125 sec (  0.002 min) = 62.8%
 Two index repulsion integral time       ...   0.004 sec (  0.000 min) =  2.1%
 Cholesky decomposition of V             ...   0.003 sec (  0.000 min) =  1.5%
 Three index repulsion integral time     ...   0.000 sec (  0.000 min) =  0.0%

[1618306021.608679] [comp0807:151113:0]            sys.c:618  UCX  ERROR shmget(size=2097152 flags=0xfb0) for mm_recv_desc failed: Operation not permitted, please check shared memory limits by 'ipcs -l'
[1618306021.628243] [comp0807:151109:0]            sys.c:618  UCX  ERROR shmget(size=2097152 flags=0xfb0) for mm_recv_desc failed: Operation not permitted, please check shared memory limits by 'ipcs -l'
[1618306021.628545] [comp0807:151107:0]            sys.c:618  UCX  ERROR shmget(size=2097152 flags=0xfb0) for mm_recv_desc failed: Operation not permitted, please check shared memory limits by 'ipcs -l'
[1618306021.636441] [comp0807:151111:0]            sys.c:618  UCX  ERROR shmget(size=2097152 flags=0xfb0) for mm_recv_desc failed: Operation not permitted, please check shared memory limits by 'ipcs -l'
[1618306021.649218] [comp0807:151112:0]            sys.c:618  UCX  ERROR shmget(size=2097152 flags=0xfb0) for mm_recv_desc failed: Operation not permitted, please check shared memory limits by 'ipcs -l'
[1618306021.649656] [comp0807:151108:0]            sys.c:618  UCX  ERROR shmget(size=2097152 flags=0xfb0) for mm_recv_desc failed: Operation not permitted, please check shared memory limits by 'ipcs -l'
[1618306021.649748] [comp0807:151110:0]            sys.c:618  UCX  ERROR shmget(size=2097152 flags=0xfb0) for mm_recv_desc failed: Operation not permitted, please check shared memory limits by 'ipcs -l'
[1618306021.650171] [comp0807:151114:0]            sys.c:618  UCX  ERROR shmget(size=2097152 flags=0xfb0) for mm_recv_desc failed: Operation not permitted, please check shared memory limits by 'ipcs -l'
[1618306021.658217] [comp0807:151107:0]            sys.c:618  UCX  ERROR shmget(size=2097152 flags=0xb80) for ucp_am_bufs failed: Operation not permitted, please check shared memory limits by 'ipcs -l'
[1618306021.659096] [comp0807:151113:0]            sys.c:618  UCX  ERROR shmget(size=2097152 flags=0xb80) for ucp_am_bufs failed: Operation not permitted, please check shared memory limits by 'ipcs -l'
[1618306021.659095] [comp0807:151108:0]            sys.c:618  UCX  ERROR shmget(size=2097152 flags=0xb80) for ucp_am_bufs failed: Operation not permitted, please check shared memory limits by 'ipcs -l'
[1618306021.659095] [comp0807:151114:0]            sys.c:618  UCX  ERROR shmget(size=2097152 flags=0xb80) for ucp_am_bufs failed: Operation not permitted, please check shared memory limits by 'ipcs -l'
[1618306021.659096] [comp0807:151111:0]            sys.c:618  UCX  ERROR shmget(size=2097152 flags=0xb80) for ucp_am_bufs failed: Operation not permitted, please check shared memory limits by 'ipcs -l'
[1618306021.659670] [comp0807:151110:0]            sys.c:618  UCX  ERROR shmget(size=2097152 flags=0xb80) for ucp_am_bufs failed: Operation not permitted, please check shared memory limits by 'ipcs -l'
[1618306021.660628] [comp0807:151109:0]            sys.c:618  UCX  ERROR shmget(size=2097152 flags=0xb80) for ucp_am_bufs failed: Operation not permitted, please check shared memory limits by 'ipcs -l'


           ************************************************************
           *        Program running with 8 parallel MPI-processes     *
           *              working on a common directory               *
           ************************************************************
[1618306021.664846] [comp0807:151112:0]            sys.c:618  UCX  ERROR shmget(size=2097152 flags=0xb80) for ucp_am_bufs failed: Operation not permitted, please check shared memory limits by 'ipcs -l'
-------------------------------------------------------------------------------
                                 ORCA SCF
-------------------------------------------------------------------------------

------------
SCF SETTINGS
------------
Hamiltonian:
 Density Functional     Method          .... DFT(GTOs)
 Exchange Functional    Exchange        .... PBE
   PBE kappa parameter   XKappa         ....  0.804000
   PBE mue parameter    XMuePBE         ....  0.219520
 Correlation Functional Correlation     .... PBE
   PBE beta parameter  CBetaPBE         ....  0.066725
 LDA part of GGA corr.  LDAOpt          .... PW91-LDA
 Gradients option       PostSCFGGA      .... off
 Hybrid DFT is turned on
   Fraction HF Exchange ScalHFX         ....  0.250000
   Scaling of DF-GGA-X  ScalDFX         ....  0.750000
   Scaling of DF-GGA-C  ScalDFC         ....  1.000000
   Scaling of DF-LDA-C  ScalLDAC        ....  1.000000
   Perturbative correction              ....  0.000000
   Density functional embedding theory  .... OFF
   NL short-range parameter             ....  6.900000
 RI-approximation to the Coulomb term is turned on
   Number of auxiliary basis functions  .... 436
   RIJ-COSX (HFX calculated with COS-X)).... on


General Settings:
 Integral files         IntName         .... quinone
 Hartree-Fock type      HFTyp           .... RHF
 Total Charge           Charge          ....    0
 Multiplicity           Mult            ....    1
 Number of Electrons    NEL             ....   56
 Basis Dimension        Dim             ....  132
 Nuclear Repulsion      ENuc            ....    322.4874670310 Eh

Convergence Acceleration:
 DIIS                   CNVDIIS         .... on
   Start iteration      DIISMaxIt       ....    12
   Startup error        DIISStart       ....  0.200000
   # of expansion vecs  DIISMaxEq       ....     5
   Bias factor          DIISBfac        ....   1.050
   Max. coefficient     DIISMaxC        ....  10.000
 Newton-Raphson         CNVNR           .... off
 SOSCF                  CNVSOSCF        .... on
   Start iteration      SOSCFMaxIt      ....   150
   Startup grad/error   SOSCFStart      ....  0.003300
 Level Shifting         CNVShift        .... on
   Level shift para.    LevelShift      ....    0.2500
   Turn off err/grad.   ShiftErr        ....    0.0010
 Zerner damping         CNVZerner       .... off
 Static damping         CNVDamp         .... on
   Fraction old density DampFac         ....    0.7000
   Max. Damping (<1)    DampMax         ....    0.9800
   Min. Damping (>=0)   DampMin         ....    0.0000
   Turn off err/grad.   DampErr         ....    0.1000
 Fernandez-Rico         CNVRico         .... off

SCF Procedure:
 Maximum # iterations   MaxIter         ....   125
 SCF integral mode      SCFMode         .... Direct
   Integral package                     .... LIBINT
 Reset frequency        DirectResetFreq ....    20
 Integral Threshold     Thresh          ....  2.500e-11 Eh
 Primitive CutOff       TCut            ....  2.500e-12 Eh

Convergence Tolerance:
 Convergence Check Mode ConvCheckMode   .... Total+1el-Energy
 Convergence forced     ConvForced      .... 0
 Energy Change          TolE            ....  1.000e-08 Eh
 1-El. energy change                    ....  1.000e-05 Eh
 Orbital Gradient       TolG            ....  1.000e-05
 Orbital Rotation angle TolX            ....  1.000e-05
 DIIS Error             TolErr          ....  5.000e-07


Diagonalization of the overlap matrix:
Smallest eigenvalue                        ... 3.318e-04
Time for diagonalization                   ...    0.007 sec
Threshold for overlap eigenvalues          ... 1.000e-08
Number of eigenvalues below threshold      ... 0
Time for construction of square roots      ...    0.002 sec
Total time needed                          ...    0.009 sec

-------------------
DFT GRID GENERATION
-------------------

General Integration Accuracy     IntAcc      ...  4.340
Radial Grid Type                 RadialGrid  ... Gauss-Chebyshev
Angular Grid (max. acc.)         AngularGrid ... Lebedev-110
Angular grid pruning method      GridPruning ... 3 (G Style)
Weight generation scheme         WeightScheme... Becke
Basis function cutoff            BFCut       ...    1.0000e-11
Integration weight cutoff        WCut        ...    1.0000e-14
Grids for H and He will be reduced by one unit

# of grid points (after initial pruning)     ...  16544 (   0.0 sec)
# of grid points (after weights+screening)   ...  15551 (   0.0 sec)
nearest neighbour list constructed           ...    0.0 sec
Grid point re-assignment to atoms done       ...    0.0 sec
Grid point division into batches done        ...    0.0 sec
Reduced shell lists constructed in    0.0 sec

Total number of grid points                  ...    15551
Total number of batches                      ...      248
Average number of points per batch           ...       62
Average number of grid points per atom       ...     1296
Average number of shells per batch           ...    37.94 (63.23%)
Average number of basis functions per batch  ...    81.69 (61.88%)
Average number of large shells per batch     ...    29.03 (76.52%)
Average number of large basis fcns per batch ...    61.53 (75.33%)
Maximum spatial batch extension              ...  19.76, 14.56, 13.93 au
Average spatial batch extension              ...   0.59,  0.50,  0.59 au

Time for grid setup =    0.072 sec

------------------------------
INITIAL GUESS: MODEL POTENTIAL
------------------------------
Loading Hartree-Fock densities                     ... done
Calculating cut-offs                               ... done
Setting up the integral package                    ... done
Initializing the effective Hamiltonian             ... done
Starting the Coulomb interaction                   ... done (   0.0 sec)
Reading the grid                                   ... done
Mapping shells                                     ... done
Starting the XC term evaluation                    ... done (   0.0 sec)
  promolecular density results
     # of electrons  =     55.997737687
     EX              =    -48.092455747
     EC              =     -1.862242317
     EX+EC           =    -49.954698064
Transforming the Hamiltonian                       ... done (   0.0 sec)
Diagonalizing the Hamiltonian                      ... done (   0.0 sec)
Back transforming the eigenvectors                 ... done (   0.0 sec)
Now organizing SCF variables                       ... done
                      ------------------
                      INITIAL GUESS DONE (   0.2 sec)
                      ------------------
--------------------
COSX GRID GENERATION
--------------------

General Integration Accuracy     IntAcc      ...  3.340
Radial Grid Type                 RadialGrid  ... Gauss-Chebyshev
Angular Grid (max. acc.)         AngularGrid ... Lebedev-50
Angular grid pruning method      GridPruning ... 3 (G Style)
Weight generation scheme         WeightScheme... Becke
Basis function cutoff            BFCut       ...    1.0000e-11
Integration weight cutoff        WCut        ...    1.0000e-14
Grids for H and He will be reduced by one unit

# of grid points (after initial pruning)     ...   5920 (   0.0 sec)
# of grid points (after weights+screening)   ...   5622 (   0.0 sec)
nearest neighbour list constructed           ...    0.0 sec
Grid point re-assignment to atoms done       ...    0.0 sec
Grid point division into batches done        ...    0.0 sec
Reduced shell lists constructed in    0.0 sec

Total number of grid points                  ...     5622
Total number of batches                      ...       94
Average number of points per batch           ...       59
Average number of grid points per atom       ...      468
Average number of shells per batch           ...    41.00 (68.33%)
Average number of basis functions per batch  ...    89.46 (67.77%)
Average number of large shells per batch     ...    32.00 (78.05%)
Average number of large basis fcns per batch ...    68.92 (77.04%)
Maximum spatial batch extension              ...  16.24, 12.22, 20.72 au
Average spatial batch extension              ...   0.76,  0.72,  0.87 au

Overlap Fitting                  UseSFitting ... on
Constructing numerical overlap ... done (      0.0 sec)
Inverting numerical overlap    ... done (      0.0 sec)
Obtaining analytic overlap     ... done (      0.0 sec)
Final contraction and storage  ... done (      0.0 sec)


General Integration Accuracy     IntAcc      ...  3.670
Radial Grid Type                 RadialGrid  ... Gauss-Chebyshev
Angular Grid (max. acc.)         AngularGrid ... Lebedev-50
Angular grid pruning method      GridPruning ... 3 (G Style)
Weight generation scheme         WeightScheme... Becke
Basis function cutoff            BFCut       ...    1.0000e-11
Integration weight cutoff        WCut        ...    1.0000e-14
Grids for H and He will be reduced by one unit

# of grid points (after initial pruning)     ...   7440 (   0.0 sec)
# of grid points (after weights+screening)   ...   7048 (   0.0 sec)
nearest neighbour list constructed           ...    0.0 sec
Grid point re-assignment to atoms done       ...    0.0 sec
Grid point division into batches done        ...    0.0 sec
Reduced shell lists constructed in    0.0 sec

Total number of grid points                  ...     7048
Total number of batches                      ...      114
Average number of points per batch           ...       61
Average number of grid points per atom       ...      587
Average number of shells per batch           ...    42.12 (70.21%)
Average number of basis functions per batch  ...    92.00 (69.70%)
Average number of large shells per batch     ...    32.69 (77.60%)
Average number of large basis fcns per batch ...    69.81 (75.88%)
Maximum spatial batch extension              ...  18.01, 12.93, 22.67 au
Average spatial batch extension              ...   0.71,  0.68,  0.78 au

Overlap Fitting                  UseSFitting ... on
Constructing numerical overlap ... done (      0.0 sec)
Inverting numerical overlap    ... done (      0.0 sec)
Obtaining analytic overlap     ... done (      0.0 sec)
Final contraction and storage  ... done (      0.0 sec)


General Integration Accuracy     IntAcc      ...  4.010
Radial Grid Type                 RadialGrid  ... Gauss-Chebyshev
Angular Grid (max. acc.)         AngularGrid ... Lebedev-110
Angular grid pruning method      GridPruning ... 3 (G Style)
Weight generation scheme         WeightScheme... Becke
Basis function cutoff            BFCut       ...    1.0000e-11
Integration weight cutoff        WCut        ...    1.0000e-14
Grids for H and He will be reduced by one unit

# of grid points (after initial pruning)     ...  14324 (   0.0 sec)
# of grid points (after weights+screening)   ...  13481 (   0.0 sec)
nearest neighbour list constructed           ...    0.0 sec
Grid point re-assignment to atoms done       ...    0.0 sec
Grid point division into batches done        ...    0.0 sec
Reduced shell lists constructed in    0.0 sec

Total number of grid points                  ...    13481
Total number of batches                      ...      216
Average number of points per batch           ...       62
Average number of grid points per atom       ...     1123
Average number of shells per batch           ...    38.71 (64.52%)
Average number of basis functions per batch  ...    83.64 (63.37%)
Average number of large shells per batch     ...    29.57 (76.38%)
Average number of large basis fcns per batch ...    62.57 (74.81%)
Maximum spatial batch extension              ...  18.85, 14.28, 18.59 au
Average spatial batch extension              ...   0.63,  0.53,  0.66 au

Overlap Fitting                  UseSFitting ... on
Constructing numerical overlap ... done (      0.0 sec)
Inverting numerical overlap    ... done (      0.0 sec)
Obtaining analytic overlap     ... done (      0.0 sec)
Final contraction and storage  ... done (      0.0 sec)

Time for X-Grid setup             =    0.135 sec
--------------
SCF ITERATIONS
--------------
ITER       Energy         Delta-E        Max-DP      RMS-DP      [F,P]     Damp
               ***  Starting incremental Fock matrix formation  ***
  0   -380.5674435519   0.000000000000 0.09351198  0.00371909  0.2170566 0.7000
  1   -380.6488376598  -0.081394107927 0.05866072  0.00235602  0.0894153 0.7000
                               ***Turning on DIIS***
  2   -380.6776855067  -0.028847846861 0.05964170  0.00318656  0.0296810 0.0000
  3   -380.7311933604  -0.053507853742 0.05517959  0.00182918  0.0445649 0.0000
  4   -380.7381877914  -0.006994431004 0.00820281  0.00038769  0.0188548 0.0000
                      *** Initiating the SOSCF procedure ***
                           *** Shutting down DIIS ***
                      *** Re-Reading the Fockian *** 
                      *** Removing any level shift *** 
ITER      Energy       Delta-E        Grad      Rot      Max-DP    RMS-DP
  5   -380.73937059  -0.0011828007  0.000628  0.000628  0.002431  0.000102
               *** Restarting incremental Fock matrix formation ***
  6   -380.73940859  -0.0000379987  0.000501  0.001499  0.001053  0.000048
  7   -380.73940768   0.0000009078  0.000589  0.000829  0.001102  0.000036
  8   -380.73941078  -0.0000030977  0.000137  0.000244  0.000409  0.000015
  9   -380.73941068   0.0000000994  0.000143  0.000131  0.000230  0.000007
                  ***Gradient check signals convergence***
              ***Rediagonalizing the Fockian in SOSCF/NRSCF***

               *****************************************************
               *                     SUCCESS                       *
               *           SCF CONVERGED AFTER  10 CYCLES          *
               *****************************************************

Setting up the final grid:

General Integration Accuracy     IntAcc      ...  4.670
Radial Grid Type                 RadialGrid  ... Gauss-Chebyshev
Angular Grid (max. acc.)         AngularGrid ... Lebedev-302
Angular grid pruning method      GridPruning ... 3 (G Style)
Weight generation scheme         WeightScheme... Becke
Basis function cutoff            BFCut       ...    1.0000e-11
Integration weight cutoff        WCut        ...    1.0000e-14
Grids for H and He will be reduced by one unit

# of grid points (after initial pruning)     ...  63272 (   0.0 sec)
[1618306025.642958] [comp0807:151108:0]            sys.c:618  UCX  ERROR shmget(size=6291456 flags=0xfb0) for mm_recv_desc failed: Operation not permitted, please check shared memory limits by 'ipcs -l'
[1618306025.646375] [comp0807:151114:0]            sys.c:618  UCX  ERROR shmget(size=6291456 flags=0xfb0) for mm_recv_desc failed: Operation not permitted, please check shared memory limits by 'ipcs -l'
# of grid points (after weights+screening)   ...  58729 (   0.0 sec)
nearest neighbour list constructed           ...    0.0 sec
Grid point re-assignment to atoms done       ...    0.0 sec
Grid point division into batches done        ...    0.2 sec
Reduced shell lists constructed in    0.2 sec
[1618306025.901733] [comp0807:151107:0]            sys.c:618  UCX  ERROR shmget(size=6291456 flags=0xfb0) for mm_recv_desc failed: Operation not permitted, please check shared memory limits by 'ipcs -l'

Total number of grid points                  ...    58729
Total number of batches                      ...      924
Average number of points per batch           ...       63
Average number of grid points per atom       ...     4894
Average number of shells per batch           ...    34.83 (58.05%)
Average number of basis functions per batch  ...    74.61 (56.52%)
Average number of large shells per batch     ...    26.38 (75.75%)
Average number of large basis fcns per batch ...    55.67 (74.61%)
Maximum spatial batch extension              ...  14.84, 13.57, 16.13 au
Average spatial batch extension              ...   0.40,  0.38,  0.45 au

Final grid set up in    0.3 sec
Final integration                            ... done (   0.1 sec)
Change in XC energy                          ...    -0.000787301
Integrated number of electrons               ...    56.000004912
Previous integrated no of electrons          ...    55.994553425
Old exchange energy                            =    -12.204032331 Eh
New exchange energy                            =    -12.204219760 Eh
Exchange energy change after final integration =     -0.000187429 Eh
Total energy after final integration           =   -380.740385725 Eh
Final COS-X integration done in                =     0.379 sec

----------------
TOTAL SCF ENERGY
----------------

Total Energy       :         -380.74038573 Eh          -10360.47261 eV

Components:
Nuclear Repulsion  :          322.48746703 Eh            8775.33011 eV
Electronic Energy  :         -703.22785276 Eh          -19135.80272 eV
One Electron Energy:        -1155.73096888 Eh          -31449.03850 eV
Two Electron Energy:          452.50311613 Eh           12313.23578 eV

Virial components:
Potential Energy   :         -758.25245323 Eh          -20633.09822 eV
Kinetic Energy     :          377.51206750 Eh           10272.62561 eV
Virial Ratio       :            2.00855156


DFT components:
N(Alpha)           :       28.000002456088 electrons
N(Beta)            :       28.000002456088 electrons
N(Total)           :       56.000004912176 electrons
E(X)               :      -36.577864945049 Eh       
E(C)               :       -1.876958463671 Eh       
E(XC)              :      -38.454823408719 Eh       
DFET-embed. en.    :        0.000000000000 Eh       

---------------
SCF CONVERGENCE
---------------

  Last Energy change         ...   -3.1366e-07  Tolerance :   1.0000e-08
  Last MAX-Density change    ...    2.2204e-15  Tolerance :   1.0000e-07
  Last RMS-Density change    ...    5.4610e-17  Tolerance :   5.0000e-09
  Last Orbital Gradient      ...    2.4761e-06  Tolerance :   1.0000e-05
  Last Orbital Rotation      ...    4.7322e-06  Tolerance :   1.0000e-05

             **** THE GBW FILE WAS UPDATED (quinone.gbw) ****
             **** DENSITY FILE WAS UPDATED (quinone.scfp) ****
             **** ENERGY FILE WAS UPDATED (quinone.en.tmp) ****
             **** THE GBW FILE WAS UPDATED (quinone.gbw) ****
             **** DENSITY FILE WAS UPDATED (quinone.scfp) ****
----------------
ORBITAL ENERGIES
----------------

  NO   OCC          E(Eh)            E(eV) 
   0   2.0000     -19.226849      -523.1892 
   1   2.0000     -19.226784      -523.1874 
   2   2.0000     -10.346639      -281.5464 
   3   2.0000     -10.346536      -281.5436 
   4   2.0000     -10.280612      -279.7497 
   5   2.0000     -10.280478      -279.7460 
   6   2.0000     -10.279872      -279.7295 
   7   2.0000     -10.279740      -279.7260 
   8   2.0000      -1.079968       -29.3874 
   9   2.0000      -1.077547       -29.3215 
  10   2.0000      -0.886681       -24.1278 
  11   2.0000      -0.814897       -22.1745 
  12   2.0000      -0.726475       -19.7684 
  13   2.0000      -0.659676       -17.9507 
  14   2.0000      -0.628707       -17.1080 
  15   2.0000      -0.538661       -14.6577 
  16   2.0000      -0.523767       -14.2524 
  17   2.0000      -0.498875       -13.5751 
  18   2.0000      -0.482757       -13.1365 
  19   2.0000      -0.466064       -12.6822 
  20   2.0000      -0.458369       -12.4729 
  21   2.0000      -0.435833       -11.8596 
  22   2.0000      -0.430235       -11.7073 
  23   2.0000      -0.420219       -11.4348 
  24   2.0000      -0.323568        -8.8047 
  25   2.0000      -0.322375        -8.7723 
  26   2.0000      -0.296989        -8.0815 
  27   2.0000      -0.288436        -7.8488 
  28   0.0000      -0.133097        -3.6218 
  29   0.0000      -0.030602        -0.8327 
  30   0.0000       0.012118         0.3298 
  31   0.0000       0.066255         1.8029 
  32   0.0000       0.087325         2.3762 
  33   0.0000       0.125489         3.4147 
  34   0.0000       0.135519         3.6877 
  35   0.0000       0.149192         4.0597 
  36   0.0000       0.183703         4.9988 
  37   0.0000       0.221492         6.0271 
  38   0.0000       0.227689         6.1957 
  39   0.0000       0.266421         7.2497 
  40   0.0000       0.284436         7.7399 
  41   0.0000       0.335289         9.1237 
  42   0.0000       0.345995         9.4150 
  43   0.0000       0.388845        10.5810 
  44   0.0000       0.391406        10.6507 
  45   0.0000       0.442038        12.0285 
  46   0.0000       0.451902        12.2969 
  47   0.0000       0.457156        12.4399 
  48   0.0000       0.485402        13.2085 
  49   0.0000       0.514953        14.0126 
  50   0.0000       0.538556        14.6549 
  51   0.0000       0.563207        15.3256 
  52   0.0000       0.586264        15.9531 
  53   0.0000       0.591390        16.0925 
  54   0.0000       0.603076        16.4105 
  55   0.0000       0.604122        16.4390 
  56   0.0000       0.628825        17.1112 
  57   0.0000       0.642019        17.4702 
  58   0.0000       0.663563        18.0565 
  59   0.0000       0.674044        18.3417 
  60   0.0000       0.677462        18.4347 
  61   0.0000       0.707600        19.2548 
  62   0.0000       0.719674        19.5833 
  63   0.0000       0.785701        21.3800 
  64   0.0000       0.796568        21.6757 
  65   0.0000       0.807829        21.9822 
  66   0.0000       0.839841        22.8532 
  67   0.0000       0.858194        23.3526 
  68   0.0000       0.942007        25.6333 
  69   0.0000       0.995626        27.0924 
  70   0.0000       1.014280        27.6000 
  71   0.0000       1.053657        28.6715 
  72   0.0000       1.059735        28.8369 
  73   0.0000       1.170864        31.8608 
  74   0.0000       1.185159        32.2498 
  75   0.0000       1.190088        32.3839 
  76   0.0000       1.212235        32.9866 
  77   0.0000       1.216660        33.1070 
  78   0.0000       1.218760        33.1641 
  79   0.0000       1.259948        34.2849 
  80   0.0000       1.271905        34.6103 
  81   0.0000       1.420761        38.6609 
  82   0.0000       1.428431        38.8696 
  83   0.0000       1.441952        39.2375 
  84   0.0000       1.444847        39.3163 
  85   0.0000       1.516966        41.2787 
  86   0.0000       1.610927        43.8355 
  87   0.0000       1.643420        44.7197 
  88   0.0000       1.703936        46.3664 
  89   0.0000       1.709305        46.5126 
  90   0.0000       1.714330        46.6493 
  91   0.0000       1.719673        46.7947 
  92   0.0000       1.741681        47.3935 
  93   0.0000       1.769517        48.1510 
  94   0.0000       1.795418        48.8558 
  95   0.0000       1.813147        49.3382 
  96   0.0000       1.847993        50.2864 
  97   0.0000       1.915575        52.1255 
  98   0.0000       1.942471        52.8573 
  99   0.0000       2.043133        55.5965 
 100   0.0000       2.061653        56.1004 
 101   0.0000       2.095216        57.0137 
 102   0.0000       2.096711        57.0544 
 103   0.0000       2.112336        57.4796 
 104   0.0000       2.113533        57.5122 
 105   0.0000       2.187488        59.5246 
 106   0.0000       2.255221        61.3677 
 107   0.0000       2.285397        62.1888 
 108   0.0000       2.310056        62.8598 
 109   0.0000       2.333059        63.4858 
 110   0.0000       2.402451        65.3740 
 111   0.0000       2.403328        65.3979 
 112   0.0000       2.477556        67.4177 
 113   0.0000       2.533865        68.9500 
 114   0.0000       2.613556        71.1185 
 115   0.0000       2.662070        72.4386 
 116   0.0000       2.682877        73.0048 
 117   0.0000       2.710114        73.7460 
 118   0.0000       2.714770        73.8727 
 119   0.0000       2.733501        74.3823 
 120   0.0000       2.738118        74.5080 
 121   0.0000       2.814627        76.5899 
 122   0.0000       2.874982        78.2322 
 123   0.0000       2.884792        78.4992 
 124   0.0000       3.110474        84.6403 
 125   0.0000       3.130590        85.1877 
 126   0.0000       3.155274        85.8594 
 127   0.0000       3.340378        90.8963 
 128   0.0000       3.405013        92.6551 
 129   0.0000       3.510904        95.5365 
 130   0.0000       3.587300        97.6154 
 131   0.0000       3.687717       100.3479 

                    ********************************
                    * MULLIKEN POPULATION ANALYSIS *
                    ********************************

-----------------------
MULLIKEN ATOMIC CHARGES
-----------------------
   0 O :   -0.207625
   1 C :    0.155193
   2 C :   -0.022229
   3 H :    0.051299
   4 C :   -0.027290
   5 H :    0.050387
   6 C :    0.155380
   7 O :   -0.207199
   8 C :   -0.022655
   9 H :    0.051316
  10 C :   -0.027049
  11 H :    0.050471
Sum of atomic charges:    0.0000000

--------------------------------
MULLIKEN REDUCED ORBITAL CHARGES
--------------------------------
  0 O s       :     3.766183  s :     3.766183
      pz      :     1.261751  p :     4.423589
      px      :     1.824588
      py      :     1.337250
      dz2     :     0.001959  d :     0.017853
      dxz     :     0.000041
      dyz     :     0.005794
      dx2y2   :     0.006158
      dxy     :     0.003901
  1 C s       :     3.030388  s :     3.030388
      pz      :     0.814154  p :     2.718352
      px      :     0.986486
      py      :     0.917712
      dz2     :     0.005058  d :     0.096067
      dxz     :     0.005253
      dyz     :     0.018304
      dx2y2   :     0.023452
      dxy     :     0.043999
  2 C s       :     3.240715  s :     3.240715
      pz      :     0.939110  p :     2.749732
      px      :     0.918024
      py      :     0.892598
      dz2     :     0.002469  d :     0.031781
      dxz     :     0.001764
      dyz     :     0.005985
      dx2y2   :     0.009426
      dxy     :     0.012137
  3 H s       :     0.925336  s :     0.925336
      pz      :     0.004147  p :     0.023365
      px      :     0.011760
      py      :     0.007458
  4 C s       :     3.239474  s :     3.239474
      pz      :     0.938809  p :     2.756091
      px      :     0.917402
      py      :     0.899880
      dz2     :     0.002467  d :     0.031725
      dxz     :     0.001703
      dyz     :     0.006037
      dx2y2   :     0.009080
      dxy     :     0.012437
  5 H s       :     0.926251  s :     0.926251
      pz      :     0.004110  p :     0.023362
      px      :     0.013002
      py      :     0.006249
  6 C s       :     3.030327  s :     3.030327
      pz      :     0.814195  p :     2.718182
      px      :     0.986245
      py      :     0.917743
      dz2     :     0.005073  d :     0.096111
      dxz     :     0.005264
      dyz     :     0.018326
      dx2y2   :     0.023453
      dxy     :     0.043995
  7 O s       :     3.765886  s :     3.765886
      pz      :     1.262148  p :     4.423443
      px      :     1.823917
      py      :     1.337378
      dz2     :     0.001963  d :     0.017871
      dxz     :     0.000045
      dyz     :     0.005798
      dx2y2   :     0.006157
      dxy     :     0.003908
  8 C s       :     3.240782  s :     3.240782
      pz      :     0.939046  p :     2.750109
      px      :     0.918016
      py      :     0.893046
      dz2     :     0.002470  d :     0.031765
      dxz     :     0.001762
      dyz     :     0.005978
      dx2y2   :     0.009426
      dxy     :     0.012130
  9 H s       :     0.925317  s :     0.925317
      pz      :     0.004153  p :     0.023368
      px      :     0.011774
      py      :     0.007440
 10 C s       :     3.239347  s :     3.239347
      pz      :     0.938861  p :     2.755978
      px      :     0.917042
      py      :     0.900074
      dz2     :     0.002467  d :     0.031725
      dxz     :     0.001700
      dyz     :     0.006023
      dx2y2   :     0.009091
      dxy     :     0.012443
 11 H s       :     0.926168  s :     0.926168
      pz      :     0.004104  p :     0.023361
      px      :     0.013015
      py      :     0.006242


                     *******************************
                     * LOEWDIN POPULATION ANALYSIS *
                     *******************************

----------------------
LOEWDIN ATOMIC CHARGES
----------------------
   0 O :   -0.125805
   1 C :    0.062515
   2 C :   -0.019310
   3 H :    0.050979
   4 C :   -0.018722
   5 H :    0.050150
   6 C :    0.062467
   7 O :   -0.125505
   8 C :   -0.019266
   9 H :    0.050958
  10 C :   -0.018674
  11 H :    0.050214

-------------------------------
LOEWDIN REDUCED ORBITAL CHARGES
-------------------------------
  0 O s       :     3.561135  s :     3.561135
      pz      :     1.259232  p :     4.534575
      px      :     1.813554
      py      :     1.461788
      dz2     :     0.004122  d :     0.030095
      dxz     :     0.000046
      dyz     :     0.006952
      dx2y2   :     0.012476
      dxy     :     0.006500
  1 C s       :     2.865642  s :     2.865642
      pz      :     0.800674  p :     2.854645
      px      :     1.047928
      py      :     1.006044
      dz2     :     0.012435  d :     0.217198
      dxz     :     0.010017
      dyz     :     0.032236
      dx2y2   :     0.058095
      dxy     :     0.104415
  2 C s       :     2.889377  s :     2.889377
      pz      :     0.923722  p :     3.044719
      px      :     1.039993
      py      :     1.081005
      dz2     :     0.006735  d :     0.085214
      dxz     :     0.003544
      dyz     :     0.011296
      dx2y2   :     0.028080
      dxy     :     0.035559
  3 H s       :     0.879293  s :     0.879293
      pz      :     0.013112  p :     0.069728
      px      :     0.035549
      py      :     0.021067
  4 C s       :     2.889348  s :     2.889348
      pz      :     0.922696  p :     3.044296
      px      :     1.042028
      py      :     1.079572
      dz2     :     0.006724  d :     0.085079
      dxz     :     0.003239
      dyz     :     0.011619
      dx2y2   :     0.027139
      dxy     :     0.036359
  5 H s       :     0.879980  s :     0.879980
      pz      :     0.013089  p :     0.069870
      px      :     0.038827
      py      :     0.017955
  6 C s       :     2.865650  s :     2.865650
      pz      :     0.800828  p :     2.854574
      px      :     1.047691
      py      :     1.006056
      dz2     :     0.012456  d :     0.217308
      dxz     :     0.010040
      dyz     :     0.032310
      dx2y2   :     0.058070
      dxy     :     0.104432
  7 O s       :     3.560890  s :     3.560890
      pz      :     1.259652  p :     4.534489
      px      :     1.812922
      py      :     1.461915
      dz2     :     0.004124  d :     0.030127
      dxz     :     0.000051
      dyz     :     0.006966
      dx2y2   :     0.012470
      dxy     :     0.006516
  8 C s       :     2.889482  s :     2.889482
      pz      :     0.923665  p :     3.044632
      px      :     1.040029
      py      :     1.080938
      dz2     :     0.006732  d :     0.085152
      dxz     :     0.003538
      dyz     :     0.011277
      dx2y2   :     0.028079
      dxy     :     0.035526
  9 H s       :     0.879300  s :     0.879300
      pz      :     0.013130  p :     0.069741
      px      :     0.035591
      py      :     0.021021
 10 C s       :     2.889347  s :     2.889347
      pz      :     0.922610  p :     3.044258
      px      :     1.042138
      py      :     1.079511
      dz2     :     0.006727  d :     0.085069
      dxz     :     0.003219
      dyz     :     0.011577
      dx2y2   :     0.027175
      dxy     :     0.036371
 11 H s       :     0.879933  s :     0.879933
      pz      :     0.013069  p :     0.069853
      px      :     0.038851
      py      :     0.017933


                      *****************************
                      * MAYER POPULATION ANALYSIS *
                      *****************************

  NA   - Mulliken gross atomic population
  ZA   - Total nuclear charge
  QA   - Mulliken gross atomic charge
  VA   - Mayer's total valence
  BVA  - Mayer's bonded valence
  FA   - Mayer's free valence

  ATOM       NA         ZA         QA         VA         BVA        FA
  0 O      8.2076     8.0000    -0.2076     2.2265     2.2265     0.0000
  1 C      5.8448     6.0000     0.1552     4.0490     4.0490    -0.0000
  2 C      6.0222     6.0000    -0.0222     3.7395     3.7395    -0.0000
  3 H      0.9487     1.0000     0.0513     0.9976     0.9976     0.0000
  4 C      6.0273     6.0000    -0.0273     3.7432     3.7432    -0.0000
  5 H      0.9496     1.0000     0.0504     0.9983     0.9983     0.0000
  6 C      5.8446     6.0000     0.1554     4.0490     4.0490    -0.0000
  7 O      8.2072     8.0000    -0.2072     2.2270     2.2270    -0.0000
  8 C      6.0227     6.0000    -0.0227     3.7398     3.7398     0.0000
  9 H      0.9487     1.0000     0.0513     0.9975     0.9975     0.0000
 10 C      6.0270     6.0000    -0.0270     3.7436     3.7436     0.0000
 11 H      0.9495     1.0000     0.0505     0.9983     0.9983     0.0000

  Mayer bond orders larger than 0.100000
B(  0-O ,  1-C ) :   2.0126 B(  1-C ,  2-C ) :   0.9987 B(  1-C , 10-C ) :   0.9999 
B(  2-C ,  3-H ) :   0.9835 B(  2-C ,  4-C ) :   1.6974 B(  4-C ,  5-H ) :   0.9822 
B(  4-C ,  6-C ) :   1.0000 B(  6-C ,  7-O ) :   2.0134 B(  6-C ,  8-C ) :   0.9981 
B(  8-C ,  9-H ) :   0.9835 B(  8-C , 10-C ) :   1.6979 B( 10-C , 11-H ) :   0.9822 


-------
TIMINGS
-------

Total SCF time: 0 days 0 hours 0 min 4 sec 

Total time                  ....       4.802 sec
Sum of individual times     ....       4.563 sec  ( 95.0%)

Fock matrix formation       ....       3.908 sec  ( 81.4%)
  Split-RI-J                ....       1.260 sec  ( 32.3% of F)
  Chain of spheres X        ....       2.274 sec  ( 58.2% of F)
  COS-X 1 center corr.      ....       0.000 sec  (  0.0% of F)
  XC integration            ....       0.304 sec  (  7.8% of F)
    Basis function eval.    ....       0.103 sec  ( 33.9% of XC)
    Density eval.           ....       0.050 sec  ( 16.5% of XC)
    XC-Functional eval.     ....       0.023 sec  (  7.5% of XC)
    XC-Potential eval.      ....       0.083 sec  ( 27.5% of XC)
Diagonalization             ....       0.012 sec  (  0.3%)
Density matrix formation    ....       0.003 sec  (  0.1%)
Population analysis         ....       0.004 sec  (  0.1%)
Initial guess               ....       0.137 sec  (  2.8%)
Orbital Transformation      ....       0.000 sec  (  0.0%)
Orbital Orthonormalization  ....       0.000 sec  (  0.0%)
DIIS solution               ....       0.004 sec  (  0.1%)
SOSCF solution              ....       0.007 sec  (  0.1%)
Grid generation             ....       0.489 sec  ( 10.2%)


-------------------------------------------------------------------------------
                          DFT DISPERSION CORRECTION                            
                                                                               
                              DFTD3 V3.1  Rev 1                                
                          USING Becke-Johnson damping                          
-------------------------------------------------------------------------------
The PBE0 functional is recognized
Active option DFTDOPT                   ...         4   

molecular C6(AA) [au] = 1960.630479 


            DFT-D V3
 parameters
 s6 scaling factor         :     1.0000 
 a1 scaling factor         :     0.4145 
 s8 scaling factor         :     1.2177 
 a2 scaling factor         :     4.8593 
 ad hoc parameters k1-k3   :    16.0000     1.3333    -4.0000 

 Edisp/kcal,au: -6.512958660605  -0.010379059178 
 E6   /kcal   :  -4.007476526 
 E8   /kcal   :  -2.505482135 
 % E8         :  38.469185287 

-------------------------   ----------------
Dispersion correction           -0.010379059
-------------------------   ----------------


-------------------------   --------------------
FINAL SINGLE POINT ENERGY      -380.750764784228
-------------------------   --------------------

[1618306027.414999] [comp0807:151145:0]            sys.c:618  UCX  ERROR shmget(size=2097152 flags=0xfb0) for mm_recv_desc failed: Operation not permitted, please check shared memory limits by 'ipcs -l'
[1618306027.431841] [comp0807:151147:0]            sys.c:618  UCX  ERROR shmget(size=2097152 flags=0xfb0) for mm_recv_desc failed: Operation not permitted, please check shared memory limits by 'ipcs -l'
[1618306027.432285] [comp0807:151151:0]            sys.c:618  UCX  ERROR shmget(size=2097152 flags=0xfb0) for mm_recv_desc failed: Operation not permitted, please check shared memory limits by 'ipcs -l'
[1618306027.432624] [comp0807:151149:0]            sys.c:618  UCX  ERROR shmget(size=2097152 flags=0xfb0) for mm_recv_desc failed: Operation not permitted, please check shared memory limits by 'ipcs -l'
[1618306027.461463] [comp0807:151146:0]            sys.c:618  UCX  ERROR shmget(size=2097152 flags=0xfb0) for mm_recv_desc failed: Operation not permitted, please check shared memory limits by 'ipcs -l'
[1618306027.461713] [comp0807:151148:0]            sys.c:618  UCX  ERROR shmget(size=2097152 flags=0xfb0) for mm_recv_desc failed: Operation not permitted, please check shared memory limits by 'ipcs -l'
[1618306027.461826] [comp0807:151150:0]            sys.c:618  UCX  ERROR shmget(size=2097152 flags=0xfb0) for mm_recv_desc failed: Operation not permitted, please check shared memory limits by 'ipcs -l'
[1618306027.461846] [comp0807:151152:0]            sys.c:618  UCX  ERROR shmget(size=2097152 flags=0xfb0) for mm_recv_desc failed: Operation not permitted, please check shared memory limits by 'ipcs -l'
[1618306027.470676] [comp0807:151151:0]            sys.c:618  UCX  ERROR shmget(size=2097152 flags=0xb80) for ucp_am_bufs failed: Operation not permitted, please check shared memory limits by 'ipcs -l'
[1618306027.470661] [comp0807:151148:0]            sys.c:618  UCX  ERROR shmget(size=2097152 flags=0xb80) for ucp_am_bufs failed: Operation not permitted, please check shared memory limits by 'ipcs -l'
[1618306027.470686] [comp0807:151146:0]            sys.c:618  UCX  ERROR shmget(size=2097152 flags=0xb80) for ucp_am_bufs failed: Operation not permitted, please check shared memory limits by 'ipcs -l'
[1618306027.470683] [comp0807:151147:0]            sys.c:618  UCX  ERROR shmget(size=2097152 flags=0xb80) for ucp_am_bufs failed: Operation not permitted, please check shared memory limits by 'ipcs -l'
[1618306027.470997] [comp0807:151145:0]            sys.c:618  UCX  ERROR shmget(size=2097152 flags=0xb80) for ucp_am_bufs failed: Operation not permitted, please check shared memory limits by 'ipcs -l'
[1618306027.471289] [comp0807:151149:0]            sys.c:618  UCX  ERROR shmget(size=2097152 flags=0xb80) for ucp_am_bufs failed: Operation not permitted, please check shared memory limits by 'ipcs -l'
[1618306027.472031] [comp0807:151152:0]            sys.c:618  UCX  ERROR shmget(size=2097152 flags=0xb80) for ucp_am_bufs failed: Operation not permitted, please check shared memory limits by 'ipcs -l'
[1618306027.472030] [comp0807:151150:0]            sys.c:618  UCX  ERROR shmget(size=2097152 flags=0xb80) for ucp_am_bufs failed: Operation not permitted, please check shared memory limits by 'ipcs -l'


           ************************************************************
           *        Program running with 8 parallel MPI-processes     *
           *              working on a common directory               *
           ************************************************************
------------------------------------------------------------------------------
                         ORCA SCF GRADIENT CALCULATION
------------------------------------------------------------------------------

Gradient of the Kohn-Sham DFT energy:
Kohn-Sham wavefunction type      ... RKS
Hartree-Fock exchange scaling    ...    0.250
Number of operators              ...    1
Number of atoms                  ...   12
Basis set dimensions             ...  132
Integral neglect threshold       ... 2.5e-11
Integral primitive cutoff        ... 2.5e-12

Nuclear repulsion gradient       ... done
One Electron Gradient            ... done
Pre-screening matrix             ... done
RI-J gradient                    ... done
COSX-gradient                    ... done
Exchange-correlation gradient    ... done
Dispersion correction            ... done

------------------
CARTESIAN GRADIENT
------------------

   1   O   :   -0.001641236   -0.016686598    0.000221345
   2   C   :    0.001130633    0.024512395   -0.000351670
   3   C   :    0.000050448   -0.005038449    0.000054551
   4   H   :    0.003648201    0.002509994    0.000789189
   5   C   :   -0.001454506    0.004043132   -0.000213839
   6   H   :    0.002242863   -0.003387873    0.000730850
   7   C   :   -0.001437475   -0.023854004    0.000861869
   8   O   :    0.002007246    0.016246000   -0.000858678
   9   C   :   -0.000018909    0.005070533   -0.000288239
  10   H   :   -0.003682684   -0.002617341   -0.000833457
  11   C   :    0.001514870   -0.004193728    0.000332593
  12   H   :   -0.002346888    0.003389883   -0.000620357

Difference to translation invariance:
           :    0.0000125639   -0.0000060559   -0.0001758420

Norm of the cartesian gradient     ...    0.0434674407
RMS gradient                       ...    0.0072445735
MAX gradient                       ...    0.0245123954

-------
TIMINGS
-------

Total SCF gradient time            ...        1.086 sec

One electron gradient       ....       0.007 sec  (  0.7%)
Prescreening matrices       ....       0.014 sec  (  1.3%)
RI-J Coulomb gradient       ....       0.140 sec  ( 12.9%)
COSX gradient               ....       0.353 sec  ( 32.5%)
XC gradient                 ....       0.263 sec  ( 24.2%)
------------------------------------------------------------------------------
                         ORCA GEOMETRY RELAXATION STEP
------------------------------------------------------------------------------

Reading the OPT-File                    .... done
Getting information on internals        .... done
Copying old internal coords+grads       .... done
Making the new internal coordinates     .... (new redundants).... done
Validating the new internal coordinates .... (new redundants).... done
Calculating the B-matrix                .... done
Calculating the G,G- and P matrices     .... done
Transforming gradient to internals      .... done
Projecting the internal gradient        .... done
Number of atoms                         ....  12
Number of internal coordinates          ....  54
Current Energy                          ....  -380.750764784 Eh
Current gradient norm                   ....     0.043467441 Eh/bohr
Maximum allowed component of the step   ....  0.300
Current trust radius                    ....  0.300
Evaluating the initial hessian          ....  (Almloef) done
Projecting the Hessian                  .... done
Forming the augmented Hessian           .... done
Diagonalizing the augmented Hessian     .... done
Last element of RFO vector              ....  0.998414083
Lowest eigenvalues of augmented Hessian:
 -0.001195278  0.013802517  0.013807048  0.013817993  0.022579812
Length of the computed step             ....  0.056386132
The final length of the internal step   ....  0.056386132
Converting the step to cartesian space:
 Initial RMS(Int)=    0.0076731807
Transforming coordinates:
 Iter   0:  RMS(Cart)=    0.0110659268 RMS(Int)=    1.2065073435
 Iter   1:  RMS(Cart)=    0.0000664965 RMS(Int)=    0.0000539313
 Iter   2:  RMS(Cart)=    0.0000005610 RMS(Int)=    0.0000004649
 Iter   3:  RMS(Cart)=    0.0000000061 RMS(Int)=    0.0000000051
done
Storing new coordinates                 .... done

                                .--------------------.
          ----------------------|Geometry convergence|-------------------------
          Item                value                   Tolerance       Converged
          ---------------------------------------------------------------------
          RMS gradient        0.0038170025            0.0001000000      NO
          MAX gradient        0.0167559367            0.0003000000      NO
          RMS step            0.0076731807            0.0020000000      NO
          MAX step            0.0173322568            0.0040000000      NO
          ........................................................
          Max(Bonds)      0.0087      Max(Angles)    0.99
          Max(Dihed)        0.90      Max(Improp)    0.00
          ---------------------------------------------------------------------

The optimization has not yet converged - more geometry cycles are needed


    ---------------------------------------------------------------------------
                         Redundant Internal Coordinates
                            (Angstroem and degrees)

        Definition                    Value    dE/dq     Step     New-Value
    ----------------------------------------------------------------------------
     1. B(C   1,O   0)                1.2269  0.016756 -0.0087    1.2182   
     2. B(C   2,C   1)                1.4786 -0.000015  0.0000    1.4786   
     3. B(H   3,C   2)                1.0945  0.001686 -0.0025    1.0919   
     4. B(C   4,C   2)                1.3428 -0.002369  0.0017    1.3445   
     5. B(H   5,C   4)                1.0933  0.000452 -0.0007    1.0926   
     6. B(C   6,C   4)                1.4801  0.000029 -0.0000    1.4800   
     7. B(O   7,C   6)                1.2266  0.016354 -0.0085    1.2181   
     8. B(C   8,C   6)                1.4788  0.000165 -0.0002    1.4786   
     9. B(H   9,C   8)                1.0944  0.001664 -0.0025    1.0920   
    10. B(C  10,C   8)                1.3430 -0.002230  0.0016    1.3446   
    11. B(C  10,C   1)                1.4798 -0.000021  0.0000    1.4798   
    12. B(H  11,C  10)                1.0934  0.000533 -0.0008    1.0926   
    13. A(C   2,C   1,C  10)          117.86  0.003740   -0.54    117.32   
    14. A(O   0,C   1,C   2)          121.18 -0.001397    0.21    121.39   
    15. A(O   0,C   1,C  10)          120.95 -0.002344    0.33    121.28   
    16. A(C   1,C   2,C   4)          120.58 -0.003187    0.46    121.04   
    17. A(H   3,C   2,C   4)          120.98 -0.002894    0.52    121.50   
    18. A(C   1,C   2,H   3)          118.44  0.006080   -0.98    117.46   
    19. A(H   5,C   4,C   6)          117.68  0.004240   -0.69    116.99   
    20. A(C   2,C   4,C   6)          121.58 -0.000460    0.07    121.65   
    21. A(C   2,C   4,H   5)          120.74 -0.003781    0.62    121.36   
    22. A(O   7,C   6,C   8)          121.28 -0.000995    0.16    121.44   
    23. A(C   4,C   6,C   8)          117.83  0.003638   -0.53    117.31   
    24. A(C   4,C   6,O   7)          120.89 -0.002644    0.37    121.26   
    25. A(H   9,C   8,C  10)          120.91 -0.002999    0.53    121.44   
    26. A(C   6,C   8,C  10)          120.59 -0.003199    0.46    121.05   
    27. A(C   6,C   8,H   9)          118.50  0.006197   -0.99    117.51   
    28. A(C   8,C  10,H  11)          120.71 -0.003788    0.63    121.34   
    29. A(C   1,C  10,H  11)          117.73  0.004320   -0.70    117.02   
    30. A(C   1,C  10,C   8)          121.56 -0.000533    0.08    121.64   
    31. D(C   4,C   2,C   1,O   0)    179.78  0.000010    0.01    179.79   
    32. D(C   4,C   2,C   1,C  10)     -0.24 -0.000027    0.12     -0.12   
    33. D(H   3,C   2,C   1,C  10)    179.15 -0.000102    0.26    179.41   
    34. D(H   3,C   2,C   1,O   0)     -0.82 -0.000065    0.14     -0.68   
    35. D(C   6,C   4,C   2,C   1)     -0.19 -0.000051    0.10     -0.10   
    36. D(H   5,C   4,C   2,C   1)    179.41 -0.000027    0.13    179.53   
    37. D(H   5,C   4,C   2,H   3)      0.03 -0.000005   -0.00      0.03   
    38. D(C   6,C   4,C   2,H   3)   -179.57 -0.000029   -0.03   -179.60   
    39. D(C   8,C   6,C   4,H   5)   -179.19  0.000084   -0.23   -179.42   
    40. D(C   8,C   6,C   4,C   2)      0.42  0.000078   -0.19      0.22   
    41. D(O   7,C   6,C   4,H   5)      1.09  0.000267   -0.90      0.19   
    42. D(O   7,C   6,C   4,C   2)   -179.30  0.000260   -0.87   -180.17   
    43. D(C  10,C   8,C   6,C   4)     -0.19 -0.000000    0.06     -0.13   
    44. D(H   9,C   8,C   6,O   7)      0.21 -0.000079    0.54      0.75   
    45. D(H   9,C   8,C   6,C   4)   -179.51  0.000110   -0.14   -179.65   
    46. D(C  10,C   8,C   6,O   7)    179.53 -0.000189    0.73    180.26   
    47. D(H  11,C  10,C   8,H   9)     -0.14 -0.000029    0.05     -0.10   
    48. D(C   1,C  10,C   8,H   9)    179.06 -0.000125    0.35    179.41   
    49. D(C   1,C  10,C   8,C   6)     -0.25 -0.000076    0.16     -0.08   
    50. D(H  11,C  10,C   1,C   2)    179.69 -0.000050    0.05    179.74   
    51. D(H  11,C  10,C   1,O   0)     -0.34 -0.000087    0.16     -0.18   
    52. D(H  11,C  10,C   8,C   6)   -179.44  0.000021   -0.14   -179.59   
    53. D(C   8,C  10,C   1,C   2)      0.47  0.000106   -0.26      0.21   
    54. D(C   8,C  10,C   1,O   0)   -179.56  0.000069   -0.15   -179.70   
    ----------------------------------------------------------------------------

         *************************************************************
         *                GEOMETRY OPTIMIZATION CYCLE   2            *
         *************************************************************
---------------------------------
CARTESIAN COORDINATES (ANGSTROEM)
---------------------------------
  O      0.786553    3.057031    1.025025
  C      0.858096    4.273057    1.011911
  C      2.157901    4.969316    1.121154
  H      3.052576    4.352085    1.225708
  C      2.228995    6.311789    1.101785
  H      3.185823    6.831889    1.189714
  C      1.017668    7.151761    0.968938
  O      1.090078    8.367607    0.955243
  C     -0.282373    6.455329    0.862716
  H     -1.177710    7.071680    0.758583
  C     -0.353664    5.112816    0.883880
  H     -1.311044    4.593238    0.799043

----------------------------
CARTESIAN COORDINATES (A.U.)
----------------------------
  NO LB      ZA    FRAG     MASS         X           Y           Z
   0 O     8.0000    0    15.999    1.486369    5.776951    1.937017
   1 C     6.0000    0    12.011    1.621567    8.074908    1.912234
   2 C     6.0000    0    12.011    4.077842    9.390646    2.118675
   3 H     1.0000    0     1.008    5.768533    8.224249    2.316252
   4 C     6.0000    0    12.011    4.212189   11.927552    2.082072
   5 H     1.0000    0     1.008    6.020333   12.910400    2.248234
   6 C     6.0000    0    12.011    1.923114   13.514870    1.831027
   7 O     8.0000    0    15.999    2.059950   15.812485    1.805148
   8 C     6.0000    0    12.011   -0.533607   12.198805    1.630296
   9 H     1.0000    0     1.008   -2.225550   13.363539    1.433515
  10 C     6.0000    0    12.011   -0.668328    9.661822    1.670291
  11 H     1.0000    0     1.008   -2.477513    8.679963    1.509972

--------------------------------
INTERNAL COORDINATES (ANGSTROEM)
--------------------------------
 O      0   0   0     0.000000000000     0.00000000     0.00000000
 C      1   0   0     1.218199917544     0.00000000     0.00000000
 C      2   1   0     1.478581419112   121.39187740     0.00000000
 H      3   2   1     1.091947506705   117.46257529   359.31993636
 C      3   2   1     1.344493568359   121.03811627   179.79405609
 H      5   3   2     1.092591773863   121.36290581   179.53184787
 C      5   3   2     1.480038632360   121.64785105   359.90439942
 O      7   5   3     1.218076978526   121.25514805   179.83154411
 C      7   5   3     1.478649997182   117.30488694     0.22414952
 H      9   7   5     1.091952784590   117.50973087   180.35580205
 C      9   7   5     1.344571516388   121.04805353   359.86704261
 H     11   9   7     1.092581531622   121.33631673   180.41266412

---------------------------
INTERNAL COORDINATES (A.U.)
---------------------------
 O      0   0   0     0.000000000000     0.00000000     0.00000000
 C      1   0   0     2.302064220524     0.00000000     0.00000000
 C      2   1   0     2.794113948827   121.39187740     0.00000000
[...]
     18      -0.015730  -0.001225   0.000204   0.001004   0.075927  -0.001708
     19       0.003225  -0.022215   0.000118  -0.000230  -0.003992   0.000260
     20       0.168917   0.002300  -0.000677  -0.009676   0.006663   0.000046
     21       0.003880  -0.002919  -0.000055  -0.000523  -0.010035  -0.000880
     22      -0.000109  -0.055145   0.000260  -0.000004   0.000528  -0.023016
     23      -0.039841   0.000231   0.000152   0.004668  -0.000825   0.000287
     24       0.010216  -0.212935  -0.006612  -0.007169  -0.046360  -0.006785
     25      -0.002444   0.077344   0.001476   0.001757   0.030210  -0.027905
     26      -0.096878  -0.021443   0.079690   0.075832  -0.004749  -0.000246
     27      -0.043798  -0.400329   0.051492   0.049350   0.236169  -0.277424
     28       0.014662  -0.176941  -0.011194  -0.012333   0.434296  -0.409499
     29       0.468710  -0.038403  -0.493194  -0.492418   0.012268  -0.017390
     30       0.008031   0.219705   0.006387   0.007273  -0.051296  -0.003890
     31      -0.002403   0.052477  -0.001789  -0.001431  -0.024964   0.027788
     32      -0.098221   0.017852  -0.078848  -0.075587  -0.003925  -0.001129
     33      -0.048120   0.380609  -0.050377  -0.048483   0.182039  -0.232612
     34       0.006655  -0.229982   0.009365   0.008273  -0.457642   0.444825
     35       0.475607   0.050278   0.488803   0.490513   0.024701  -0.030306
                 24         25         26         27         28         29    
      0      -0.027735   0.044683  -0.002354   0.012855   0.020567   0.007878
      1       0.001022  -0.002212  -0.043207  -0.000409  -0.001358   0.147272
      2      -0.002603   0.004286   0.000513   0.001221   0.001962  -0.001725
      3       0.166808  -0.307104   0.000453  -0.182555   0.035844  -0.004736
      4      -0.008721   0.015936   0.003017   0.009525  -0.001034  -0.107880
      5       0.016034  -0.029490   0.000046  -0.017039   0.003232   0.001204
      6      -0.020454   0.098253   0.096299   0.173674  -0.079368  -0.064545
      7       0.036134  -0.009006   0.058114   0.058889  -0.393320  -0.371148
      8      -0.002674   0.009636   0.007976   0.015152   0.000587   0.001606
      9      -0.316769   0.327219  -0.241761  -0.155278   0.295643   0.300044
     10      -0.374348   0.289212  -0.422949  -0.417617   0.032861   0.038717
     11      -0.021795   0.024425  -0.013527  -0.005355   0.027893   0.028118
     12       0.024042   0.097414  -0.089265  -0.165614  -0.032836  -0.020345
     13       0.034317  -0.000966   0.069280   0.079156   0.398666   0.375069
     14       0.001493   0.009212  -0.009790  -0.017045  -0.011258  -0.009625
     15       0.264131   0.291447   0.189945   0.107214   0.287875   0.292435
     16      -0.394733  -0.325171  -0.445219  -0.433513  -0.062876  -0.070139
     17       0.032399   0.034109   0.026485   0.018509   0.029599   0.029896
     18      -0.166813  -0.307098   0.000448   0.182560   0.035839   0.004757
     19       0.008723   0.015938   0.003017  -0.009526  -0.001060   0.107879
     20      -0.016036  -0.029492   0.000024   0.017042   0.003232  -0.001259
     21       0.027736   0.044683  -0.002355  -0.012856   0.020570  -0.007876
     22      -0.001022  -0.002212  -0.043206   0.000404  -0.001315  -0.147271
     23       0.002603   0.004287   0.000525  -0.001221   0.001962   0.001770
     24       0.020454   0.098245   0.096306  -0.173664  -0.079386   0.064515
     25      -0.036135  -0.009006   0.058118  -0.058886  -0.393450   0.371012
     26       0.002675   0.009652   0.007990  -0.015175   0.000590  -0.001607
     27       0.316751   0.327199  -0.241758   0.155252   0.295747  -0.299937
     28       0.374338   0.289207  -0.422965   0.417581   0.032879  -0.038708
     29       0.021862   0.024493  -0.013561   0.005369   0.027938  -0.028159
     30      -0.024038   0.097414  -0.089271   0.165602  -0.032846   0.020335
     31      -0.034317  -0.000968   0.069281  -0.079145   0.398799  -0.374933
     32      -0.001492   0.009227  -0.009804   0.017067  -0.011268   0.009628
     33      -0.264118   0.291433   0.189945  -0.107198   0.287973  -0.292328
     34       0.394736  -0.325163  -0.445247   0.433489  -0.062918   0.070127
     35      -0.032467   0.034178   0.026527  -0.018531   0.029646  -0.029934
                 30         31         32         33         34         35    
      0      -0.016833   0.019086   0.000008   0.000113  -0.000247  -0.000067
      1      -0.315499   0.358326   0.000468  -0.000067  -0.000015  -0.001155
      2       0.003746  -0.004262  -0.000007   0.000012  -0.000022   0.000014
      3       0.027347  -0.028914   0.000043  -0.001375   0.002253   0.000223
      4       0.509586  -0.549108  -0.001701   0.000239  -0.000028   0.003172
      5      -0.006186   0.006683   0.000031  -0.000128   0.000201  -0.000028
      6      -0.030033   0.011118   0.033330   0.033219  -0.036098  -0.036417
      7      -0.140222   0.047201  -0.022177  -0.022495   0.031780   0.031378
      8      -0.000054   0.000246   0.003849   0.003839  -0.004347  -0.004370
      9       0.167394  -0.106732  -0.382029  -0.382020   0.422057   0.420808
     10       0.145316  -0.144111   0.273547   0.274024  -0.306317  -0.304938
     11       0.013646  -0.007366  -0.044744  -0.044758   0.049564   0.049401
     12      -0.013576  -0.006184  -0.039630  -0.039417  -0.035575  -0.036016
     13       0.142887   0.049648  -0.021025  -0.021181  -0.025422  -0.025053
     14      -0.004213  -0.001568  -0.003524  -0.003502  -0.003034  -0.003076
     15       0.148882   0.089571   0.456449   0.454460   0.409021   0.409639
     16      -0.162433  -0.154734   0.254082   0.253349   0.231147   0.231001
     17       0.018288   0.011224   0.040611   0.040414   0.036344   0.036407
     18      -0.027383  -0.028905   0.000046   0.001374   0.002254  -0.000226
     19      -0.510020  -0.548663  -0.001701  -0.000236  -0.000032  -0.003172
     20       0.006315   0.006817   0.000031   0.000127   0.000201   0.000027
     21       0.016861   0.019086   0.000008  -0.000113  -0.000247   0.000068
     22       0.315782   0.358050   0.000468   0.000066  -0.000013   0.001155
     23      -0.003846  -0.004373  -0.000007  -0.000012  -0.000022  -0.000014
     24       0.030037   0.011090   0.033254  -0.033270  -0.036058   0.036479
     25       0.140247   0.047079  -0.022124   0.022526   0.031742  -0.031430
     26       0.000058   0.000252   0.003844  -0.003849  -0.004346   0.004381
     27      -0.167467  -0.106582  -0.381155   0.382604   0.421586  -0.421533
     28      -0.145430  -0.143984   0.272918  -0.274440  -0.305974   0.305462
     29      -0.013686  -0.007392  -0.044685   0.044870   0.049558  -0.049535
     30       0.013569  -0.006193  -0.039563   0.039507  -0.035507   0.036056
     31      -0.142836   0.049771  -0.020991   0.021231  -0.025378   0.025083
     32       0.004218  -0.001578  -0.003522   0.003513  -0.003032   0.003083
     33      -0.148798   0.089695   0.455683  -0.455499   0.408252  -0.410093
     34       0.162312  -0.154873   0.253655  -0.253927   0.230714  -0.231258
     35      -0.018315   0.011279   0.040586  -0.040550   0.036315  -0.036487


-----------
IR SPECTRUM
-----------

 Mode    freq (cm**-1)   T**2         TX         TY         TZ
-------------------------------------------------------------------
   6:        96.70   12.222473  (  0.326025  -0.056812  -3.480367)
   7:       233.93    0.000003  (  0.000023   0.001825   0.000004)
   8:       342.64    0.002551  (  0.048393  -0.013178   0.005969)
   9:       420.43   25.629949  ( -5.032061   0.261946  -0.489585)
  10:       453.32    0.000000  (  0.000161  -0.000012   0.000043)
  11:       457.04    0.000000  ( -0.000060   0.000020  -0.000615)
  12:       521.01    3.049568  ( -0.254471   0.064181   1.726469)
  13:       610.59    0.000000  ( -0.000047   0.000029   0.000028)
  14:       760.80    0.000000  (  0.000224  -0.000034  -0.000072)
  15:       768.25    1.181282  (  0.093832   1.082758  -0.010631)
  16:       794.63    0.000001  (  0.000225  -0.000029  -0.001041)
  17:       813.14    0.000003  ( -0.000078  -0.001684   0.000063)
  18:       916.91   77.771138  ( -0.931241   0.110372   8.768794)
  19:       945.32   16.013487  (  0.230142   3.995062  -0.002070)
  20:      1033.96    0.026154  (  0.001902  -0.156845  -0.039373)
  21:      1037.15    0.000001  (  0.000075   0.000798   0.000108)
  22:      1075.08   44.570639  (  6.637625  -0.386144   0.602882)
  23:      1142.22    0.000000  (  0.000215  -0.000107  -0.000541)
  24:      1231.82    0.000000  ( -0.000125   0.000044  -0.000006)
  25:      1334.30   89.368187  ( -9.398710   0.477054  -0.897137)
  26:      1368.47    9.849335  ( -0.166727  -3.133411   0.057207)
  27:      1409.56    0.000000  (  0.000045  -0.000055  -0.000024)
  28:      1691.44   21.455525  (  4.601695  -0.259303   0.461187)
  29:      1724.19    0.000001  (  0.000911  -0.000027  -0.000494)
  30:      1815.11    0.000062  ( -0.000442  -0.007881   0.000419)
  31:      1816.74  371.039147  ( -0.995851 -19.235087   0.242578)
  32:      3214.31    0.412916  ( -0.097214  -0.635090   0.011231)
  33:      3215.30    0.000001  (  0.000385   0.000613  -0.000018)
  34:      3231.66    0.543839  ( -0.735279   0.056575   0.001389)
  35:      3233.59    0.000000  (  0.000478  -0.000036   0.000111)

The first frequency considered to be a vibration is 6
The total number of vibrations considered is 30


--------------------------
THERMOCHEMISTRY AT 298.15K
--------------------------

Temperature         ... 298.15 K
Pressure            ... 1.00 atm
Total Mass          ... 108.10 AMU

Throughout the following assumptions are being made:
  (1) The electronic state is orbitally nondegenerate
  (2) There are no thermally accessible electronically excited states
  (3) Hindered rotations indicated by low frequency modes are not
      treated as such but are treated as vibrations and this may
      cause some error
  (4) All equations used are the standard statistical mechanics
      equations for an ideal gas
  (5) All vibrations are strictly harmonic

freq.      96.70  E(vib)   ...       0.46 
freq.     233.93  E(vib)   ...       0.32 
freq.     342.64  E(vib)   ...       0.23 
freq.     420.43  E(vib)   ...       0.18 
freq.     453.32  E(vib)   ...       0.16 
freq.     457.04  E(vib)   ...       0.16 
freq.     521.01  E(vib)   ...       0.13 
freq.     610.59  E(vib)   ...       0.10 
freq.     760.80  E(vib)   ...       0.06 
freq.     768.25  E(vib)   ...       0.06 
freq.     794.63  E(vib)   ...       0.05 
freq.     813.14  E(vib)   ...       0.05 
freq.     916.91  E(vib)   ...       0.03 
freq.     945.32  E(vib)   ...       0.03 
freq.    1033.96  E(vib)   ...       0.02 
freq.    1037.15  E(vib)   ...       0.02 
freq.    1075.08  E(vib)   ...       0.02 
freq.    1142.22  E(vib)   ...       0.01 
freq.    1231.82  E(vib)   ...       0.01 
freq.    1334.30  E(vib)   ...       0.01 
freq.    1368.47  E(vib)   ...       0.01 
freq.    1409.56  E(vib)   ...       0.00 
freq.    1691.44  E(vib)   ...       0.00 
freq.    1724.19  E(vib)   ...       0.00 
freq.    1815.11  E(vib)   ...       0.00 
freq.    1816.74  E(vib)   ...       0.00 
freq.    3214.31  E(vib)   ...       0.00 
freq.    3215.30  E(vib)   ...       0.00 
freq.    3231.66  E(vib)   ...       0.00 
freq.    3233.59  E(vib)   ...       0.00 

------------
INNER ENERGY
------------

The inner energy is: U= E(el) + E(ZPE) + E(vib) + E(rot) + E(trans)
    E(el)   - is the total energy from the electronic structure calculation
              = E(kin-el) + E(nuc-el) + E(el-el) + E(nuc-nuc)
    E(ZPE)  - the the zero temperature vibrational energy from the frequency calculation
    E(vib)  - the the finite temperature correction to E(ZPE) due to population
              of excited vibrational states
    E(rot)  - is the rotational thermal energy
    E(trans)- is the translational thermal energy

Summary of contributions to the inner energy U:
Electronic energy                ...   -380.75193590 Eh
Zero point energy                ...      0.08590878 Eh      53.91 kcal/mol
Thermal vibrational correction   ...      0.00338118 Eh       2.12 kcal/mol
Thermal rotational correction    ...      0.00141627 Eh       0.89 kcal/mol
Thermal translational correction ...      0.00141627 Eh       0.89 kcal/mol
-----------------------------------------------------------------------
Total thermal energy                   -380.65981339 Eh


Summary of corrections to the electronic energy:
(perhaps to be used in another calculation)
Total thermal correction                  0.00621373 Eh       3.90 kcal/mol
Non-thermal (ZPE) correction              0.08590878 Eh      53.91 kcal/mol
-----------------------------------------------------------------------
Total correction                          0.09212251 Eh      57.81 kcal/mol


--------
ENTHALPY
--------

The enthalpy is H = U + kB*T
                kB is Boltzmann's constant
Total free energy                 ...   -380.65981339 Eh 
Thermal Enthalpy correction       ...      0.00094421 Eh       0.59 kcal/mol
-----------------------------------------------------------------------
Total Enthalpy                    ...   -380.65886918 Eh


Note: Only C1 symmetry has been detected, increase convergence thresholds 
      if your molecule has a higher symmetry. Symmetry factor of 1.0 is   
      used for the rotational entropy correction. 
 

Note: Rotational entropy computed according to Herzberg 
Infrared and Raman Spectra, Chapter V,1, Van Nostrand Reinhold, 1945 
Point Group:  C1, Symmetry Number:   1  
Rotational constants in cm-1:     0.175394     0.055307     0.042048 

Vibrational entropy computed according to the QRRHO of S. Grimme
Chem.Eur.J. 2012 18 9955


-------
ENTROPY
-------

The entropy contributions are T*S = T*(S(el)+S(vib)+S(rot)+S(trans))
     S(el)   - electronic entropy
     S(vib)  - vibrational entropy
     S(rot)  - rotational entropy
     S(trans)- translational entropy
The entropies will be listed as mutliplied by the temperature to get
units of energy

Electronic entropy                ...      0.00000000 Eh      0.00 kcal/mol
Vibrational entropy               ...      0.00535295 Eh      3.36 kcal/mol
Rotational entropy                ...      0.01319524 Eh      8.28 kcal/mol
Translational entropy             ...      0.01898150 Eh     11.91 kcal/mol
-----------------------------------------------------------------------
Final entropy term                ...      0.03752969 Eh     23.55 kcal/mol

In case the symmetry of your molecule has not been determined correctly
or in case you have a reason to use a different symmetry number we print 
out the resulting rotational entropy values for sn=1,12 :
 --------------------------------------------------------
|  sn= 1 | S(rot)=       0.01319524 Eh      8.28 kcal/mol|
|  sn= 2 | S(rot)=       0.01254079 Eh      7.87 kcal/mol|
|  sn= 3 | S(rot)=       0.01215795 Eh      7.63 kcal/mol|
|  sn= 4 | S(rot)=       0.01188633 Eh      7.46 kcal/mol|
|  sn= 5 | S(rot)=       0.01167564 Eh      7.33 kcal/mol|
|  sn= 6 | S(rot)=       0.01150350 Eh      7.22 kcal/mol|
|  sn= 7 | S(rot)=       0.01135795 Eh      7.13 kcal/mol|
|  sn= 8 | S(rot)=       0.01123187 Eh      7.05 kcal/mol|
|  sn= 9 | S(rot)=       0.01112066 Eh      6.98 kcal/mol|
|  sn=10 | S(rot)=       0.01102118 Eh      6.92 kcal/mol|
|  sn=11 | S(rot)=       0.01093119 Eh      6.86 kcal/mol|
|  sn=12 | S(rot)=       0.01084904 Eh      6.81 kcal/mol|
 --------------------------------------------------------


-------------------
GIBBS FREE ENERGY
-------------------

The Gibbs free energy is G = H - T*S

Total enthalpy                    ...   -380.65886918 Eh 
Total entropy correction          ...     -0.03752969 Eh    -23.55 kcal/mol
-----------------------------------------------------------------------
Final Gibbs free energy         ...   -380.69639887 Eh

For completeness - the Gibbs free energy minus the electronic energy
G-E(el)                           ...      0.05553703 Eh     34.85 kcal/mol

[1618306116.353885] [comp0807:152090:0]            sys.c:618  UCX  ERROR shmget(size=2097152 flags=0xfb0) for mm_recv_desc failed: Operation not permitted, please check shared memory limits by 'ipcs -l'
[1618306116.355745] [comp0807:152086:0]            sys.c:618  UCX  ERROR shmget(size=2097152 flags=0xfb0) for mm_recv_desc failed: Operation not permitted, please check shared memory limits by 'ipcs -l'
[1618306116.356939] [comp0807:152092:0]            sys.c:618  UCX  ERROR shmget(size=2097152 flags=0xfb0) for mm_recv_desc failed: Operation not permitted, please check shared memory limits by 'ipcs -l'
[1618306116.386817] [comp0807:152091:0]            sys.c:618  UCX  ERROR shmget(size=2097152 flags=0xfb0) for mm_recv_desc failed: Operation not permitted, please check shared memory limits by 'ipcs -l'
[1618306116.386997] [comp0807:152088:0]            sys.c:618  UCX  ERROR shmget(size=2097152 flags=0xfb0) for mm_recv_desc failed: Operation not permitted, please check shared memory limits by 'ipcs -l'
[1618306116.388008] [comp0807:152093:0]            sys.c:618  UCX  ERROR shmget(size=2097152 flags=0xfb0) for mm_recv_desc failed: Operation not permitted, please check shared memory limits by 'ipcs -l'
[1618306116.388124] [comp0807:152089:0]            sys.c:618  UCX  ERROR shmget(size=2097152 flags=0xfb0) for mm_recv_desc failed: Operation not permitted, please check shared memory limits by 'ipcs -l'
[1618306116.388253] [comp0807:152087:0]            sys.c:618  UCX  ERROR shmget(size=2097152 flags=0xfb0) for mm_recv_desc failed: Operation not permitted, please check shared memory limits by 'ipcs -l'
[1618306116.396855] [comp0807:152091:0]            sys.c:618  UCX  ERROR shmget(size=2097152 flags=0xb80) for ucp_am_bufs failed: Operation not permitted, please check shared memory limits by 'ipcs -l'
[1618306116.396859] [comp0807:152093:0]            sys.c:618  UCX  ERROR shmget(size=2097152 flags=0xb80) for ucp_am_bufs failed: Operation not permitted, please check shared memory limits by 'ipcs -l'
[1618306116.396849] [comp0807:152092:0]            sys.c:618  UCX  ERROR shmget(size=2097152 flags=0xb80) for ucp_am_bufs failed: Operation not permitted, please check shared memory limits by 'ipcs -l'
[1618306116.397608] [comp0807:152086:0]            sys.c:618  UCX  ERROR shmget(size=2097152 flags=0xb80) for ucp_am_bufs failed: Operation not permitted, please check shared memory limits by 'ipcs -l'
[1618306116.396849] [comp0807:152088:0]            sys.c:618  UCX  ERROR shmget(size=2097152 flags=0xb80) for ucp_am_bufs failed: Operation not permitted, please check shared memory limits by 'ipcs -l'
[1618306116.398126] [comp0807:152087:0]            sys.c:618  UCX  ERROR shmget(size=2097152 flags=0xb80) for ucp_am_bufs failed: Operation not permitted, please check shared memory limits by 'ipcs -l'
[1618306116.397435] [comp0807:152090:0]            sys.c:618  UCX  ERROR shmget(size=2097152 flags=0xb80) for ucp_am_bufs failed: Operation not permitted, please check shared memory limits by 'ipcs -l'
[1618306116.398130] [comp0807:152089:0]            sys.c:618  UCX  ERROR shmget(size=2097152 flags=0xb80) for ucp_am_bufs failed: Operation not permitted, please check shared memory limits by 'ipcs -l'

Timings for individual modules:

Sum of individual times         ...       94.654 sec (=   1.578 min)
GTO integral calculation        ...        9.539 sec (=   0.159 min)  10.1 %
SCF iterations                  ...       41.117 sec (=   0.685 min)  43.4 %
SCF Gradient evaluation         ...       14.599 sec (=   0.243 min)  15.4 %
Geometry relaxation             ...        0.619 sec (=   0.010 min)   0.7 %
Analytical frequency calculation...       28.779 sec (=   0.480 min)  30.4 %
                             ****ORCA TERMINATED NORMALLY****
TOTAL RUN TIME: 0 days 0 hours 1 minutes 37 seconds 67 msec
