
                                 *****************
                                 * O   R   C   A *
                                 *****************

           --- An Ab Initio, DFT and Semiempirical electronic structure package ---

                  #######################################################
                  #                        -***-                        #
                  #          Department of theory and spectroscopy      #
                  #               Directorship: Frank Neese             #
                  #        Max Planck Institute fuer Kohlenforschung    #
                  #                Kaiser Wilhelm Platz 1               #
                  #                 D-45470 Muelheim/Ruhr               #
                  #                      Germany                        #
                  #                                                     #
                  #                  All rights reserved                #
                  #                        -***-                        #
                  #######################################################


                         Program Version 4.2.1 -  RELEASE  -


 With contributions from (in alphabetic order):
   Daniel Aravena         : Magnetic Suceptibility
   Michael Atanasov       : Ab Initio Ligand Field Theory (pilot matlab implementation)
   Alexander A. Auer      : GIAO ZORA, VPT2
   Ute Becker             : Parallelization
   Giovanni Bistoni       : ED, misc. LED, open-shell LED, HFLD
   Martin Brehm           : Molecular dynamics
   Dmytro Bykov           : SCF Hessian
   Vijay G. Chilkuri      : MRCI spin determinant printing, contributions to CSF-ICE
   Dipayan Datta          : RHF DLPNO-CCSD density
   Achintya Kumar Dutta   : EOM-CC, STEOM-CC
   Dmitry Ganyushin       : Spin-Orbit,Spin-Spin,Magnetic field MRCI
   Miquel Garcia          : C-PCM Hessian, Gaussian charge scheme
   Yang Guo               : DLPNO-NEVPT2, CIM, IAO-localization
   Andreas Hansen         : Spin unrestricted coupled pair/coupled cluster methods
   Benjamin Helmich-Paris : CASSCF linear response (MC-RPA)
   Lee Huntington         : MR-EOM, pCC
   Robert Izsak           : Overlap fitted RIJCOSX, COSX-SCS-MP3, EOM
   Christian Kollmar      : KDIIS, OOCD, Brueckner-CCSD(T), CCSD density
   Simone Kossmann        : Meta GGA functionals, TD-DFT gradient, OOMP2, MP2 Hessian
   Martin Krupicka        : AUTO-CI
   Lucas Lang             : DCDCAS
   Dagmar Lenk            : GEPOL surface, SMD
   Dimitrios Liakos       : Extrapolation schemes; Compound Job, initial MDCI parallelization
   Dimitrios Manganas     : Further ROCIS development; embedding schemes
   Dimitrios Pantazis     : SARC Basis sets
   Taras Petrenko         : DFT Hessian,TD-DFT gradient, ASA, ECA, R-Raman, ABS, FL, XAS/XES, NRVS
   Peter Pinski           : DLPNO-MP2, DLPNO-MP2 Gradient
   Christoph Reimann      : Effective Core Potentials
   Marius Retegan         : Local ZFS, SOC
   Christoph Riplinger    : Optimizer, TS searches, QM/MM, DLPNO-CCSD(T), (RO)-DLPNO pert. Triples
   Tobias Risthaus        : Range-separated hybrids, TD-DFT gradient, RPA, STAB
   Michael Roemelt        : Original ROCIS implementation
   Masaaki Saitow         : Open-shell DLPNO-CCSD energy and density
   Barbara Sandhoefer     : DKH picture change effects
   Avijit Sen             : IP-ROCIS
   Kantharuban Sivalingam : CASSCF convergence, NEVPT2, FIC-MRCI
   Bernardo de Souza      : ESD, SOC TD-DFT
   Georgi Stoychev        : AutoAux, RI-MP2 NMR
   Willem Van den Heuvel  : Paramagnetic NMR
   Boris Wezisla          : Elementary symmetry handling
   Frank Wennmohs         : Technical directorship


 We gratefully acknowledge several colleagues who have allowed us to
 interface, adapt or use parts of their codes:
   Stefan Grimme, W. Hujo, H. Kruse,             : VdW corrections, initial TS optimization,
                  C. Bannwarth                     DFT functionals, gCP, sTDA/sTD-DF
   Ed Valeev, F. Pavosevic, A. Kumar             : LibInt (2-el integral package), F12 methods
   Garnet Chan, S. Sharma, J. Yang, R. Olivares  : DMRG
   Ulf Ekstrom                                   : XCFun DFT Library
   Mihaly Kallay                                 : mrcc  (arbitrary order and MRCC methods)
   Andreas Klamt, Michael Diedenhofen            : otool_cosmo (COSMO solvation model)
   Jiri Pittner, Ondrej Demel                    : Mk-CCSD
   Frank Weinhold                                : gennbo (NPA and NBO analysis)
   Christopher J. Cramer and Donald G. Truhlar   : smd solvation model
   Lars Goerigk                                  : TD-DFT with DH, B97 family of functionals
   V. Asgeirsson, H. Jonsson                     : NEB implementation
   FAccTs GmbH                                   : IRC, NEB, NEB-TS, Multilevel, MM, QM/MM, CI optimization
   S Lehtola, MJT Oliveira, MAL Marques          : LibXC Library


 Your calculation uses the libint2 library for the computation of 2-el integrals
 For citations please refer to: http://libint.valeyev.net

 Your ORCA version has been built with support for libXC version: 4.2.3
 For citations please refer to: https://tddft.org/programs/libxc/

 This ORCA versions uses:
   CBLAS   interface :  Fast vector & matrix operations
   LAPACKE interface :  Fast linear algebra routines
   SCALAPACK package :  Parallel linear algebra routines




***************************************
The coordinates will be read from file: octamer.xyz
***************************************


Your calculation utilizes the atom-pairwise dispersion correction
with the Becke-Johnson damping scheme (D3BJ)
Cite in your paper:
S.Grimme, S.Ehrlich, L.Goerigk, J Comput Chem, (2011), 32, 1456–1465 
S.Grimme, J.Antony, S.Ehrlich and H.Krieg, J.Chem.Phys., 132, (2010), 154104 
   

Your calculation utilizes the SMD solvation module
Please cite in your paper:
A.V. Marenich, C.J. Cramer, D.G. Truhlar J. Phys. Chem. B, 113, (2009), 6378 

----- Orbital basis set information -----
Your calculation utilizes the basis: def2-SVP
   F. Weigend and R. Ahlrichs, Phys. Chem. Chem. Phys. 7, 3297 (2005).

================================================================================
                                        WARNINGS
                       Please study these warnings very carefully!
================================================================================


WARNING: Geometry Optimization
  ===> : Switching off AutoStart
         For restart on a previous wavefunction, please use MOREAD

INFO   : the flag for use of LIBINT has been found!

================================================================================
                                       INPUT FILE
================================================================================
NAME = octamer.inp
|  1> ! PBE0 D3BJ def2-SVP LooseOpt Freq CPCM(water) PAL4
|  2> %geom MaxIter 500 end
|  3> %maxcore 4000
|  4> %cpcm  
|  5>     smd true
|  6>     SMDsolvent "water"
|  7> end
|  8> *xyzfile 0 1 octamer.xyz
|  9> 
| 10>                          ****END OF INPUT****
================================================================================

                       *****************************
                       * Geometry Optimization Run *
                       *****************************

Geometry optimization settings:
Update method            Update   .... BFGS
Choice of coordinates    CoordSys .... Z-matrix Internals
Initial Hessian          InHess   .... Almoef's Model

Convergence Tolerances:
Energy Change            TolE     ....  3.0000e-05 Eh
Max. Gradient            TolMAXG  ....  2.0000e-03 Eh/bohr
RMS Gradient             TolRMSG  ....  5.0000e-04 Eh/bohr
Max. Displacement        TolMAXD  ....  1.0000e-02 bohr
RMS Displacement         TolRMSD  ....  7.0000e-03 bohr
Strict Convergence                ....  False
------------------------------------------------------------------------------
                        ORCA OPTIMIZATION COORDINATE SETUP
------------------------------------------------------------------------------

The optimization will be done in new redundant internal coordinates
Making redundant internal coordinates   ...  (new redundants) done
Evaluating the initial hessian          ...  (Almloef) done
Evaluating the coordinates              ...  done
Calculating the B-matrix                .... done
Calculating the G-matrix                .... done
Diagonalizing the G-matrix              .... done
The first mode is                       ....  388
The number of degrees of freedom        ....   66

    -----------------------------------------------------------------
                    Redundant Internal Coordinates


    -----------------------------------------------------------------
         Definition                    Initial Value    Approx d2E/dq
    -----------------------------------------------------------------
      1. B(H   1,O   0)                  1.0011         0.447114   
      2. B(H   2,O   0)                  0.9662         0.508162   
      3. B(H   4,O   3)                  0.9992         0.450185   
      4. B(H   5,O   3)                  0.9663         0.508142   
      5. B(H   7,O   6)                  0.9826         0.478566   
      6. B(H   7,H   1)                  1.9676         0.002744   
      7. B(H   7,O   0)                  1.8091         0.022978   
      8. B(H   8,O   6)                  0.9665         0.507765   
      9. B(H  10,O   9)                  0.9664         0.507870   
     10. B(H  11,O   9)                  0.9861         0.472409   
     11. B(O  12,H   4)                  1.6380         0.043072   
     12. B(H  13,H   4)                  2.1291         0.001516   
     13. B(H  13,O  12)                  0.9915         0.463198   
     14. B(H  14,H   4)                  2.1277         0.001524   
     15. B(H  14,O  12)                  0.9812         0.481007   
     16. B(O  15,H  11)                  1.7248         0.031317   
     17. B(O  15,H  14)                  1.7719         0.026338   
     18. B(H  16,O  15)                  0.9660         0.508599   
     19. B(H  17,O  15)                  0.9935         0.459798   
     20. B(H  17,O   0)                  1.6509         0.041078   
     21. B(H  17,H  11)                  2.2126         0.001116   
     22. B(O  18,H   1)                  1.6527         0.040817   
     23. B(H  19,O  18)                  0.9966         0.454510   
     24. B(H  19,H   5)                  2.1145         0.001599   
     25. B(H  19,H   4)                  2.1473         0.001418   
     26. B(H  19,O   3)                  1.6526         0.040832   
     27. B(H  19,H   1)                  2.1433         0.001439   
     28. B(H  20,O  18)                  0.9746         0.492833   
     29. B(H  20,H   1)                  1.9065         0.003434   
     30. B(H  20,H   7)                  2.0746         0.001852   
     31. B(H  20,O   6)                  1.9377         0.014326   
     32. B(O  21,H  13)                  1.7020         0.034057   
     33. B(H  22,O  21)                  0.9831         0.477636   
     34. B(H  22,H  13)                  2.1577         0.001365   
     35. B(H  22,H   7)                  2.1838         0.001240   
     36. B(H  22,O   6)                  1.7514         0.028406   
     37. B(H  23,H  13)                  2.0416         0.002090   
     38. B(H  23,H  11)                  2.1104         0.001624   
     39. B(H  23,H  10)                  2.1873         0.001224   
     40. B(H  23,O   9)                  1.7493         0.028621   
     41. B(H  23,O  21)                  0.9862         0.472160   
     42. A(H   2,O   0,H  17)          120.6302         0.219402   
     43. A(H   2,O   0,H   7)          118.3574         0.203336   
     44. A(H   7,O   0,H  17)          109.3511         0.153704   
     45. A(H   1,O   0,H  17)          113.3425         0.215679   
     46. A(H   1,O   0,H   7)           83.6027         0.200071   
     47. A(H   1,O   0,H   2)          105.3644         0.312849   
     48. A(H  19,H   1,H  20)           44.5797         0.101899   
     49. A(O   0,H   1,H  19)          148.0782         0.136998   
     50. A(O  18,H   1,H  20)           30.7391         0.122995   
     51. A(H   7,H   1,H  20)           64.7332         0.103928   
     52. A(O   0,H   1,H  20)          130.7363         0.147440   
     53. A(O   0,H   1,H   7)           66.0247         0.144548   
     54. A(O   0,H   1,O  18)          161.1576         0.215497   
     55. A(H   7,H   1,O  18)           95.4176         0.121313   
     56. A(H   7,H   1,H  19)           99.6663         0.101261   
     57. A(O  18,H   1,H  19)           26.6493         0.116921   
     58. A(H   4,O   3,H  19)          105.4779         0.215703   
     59. A(H   5,O   3,H  19)          104.6297         0.219224   
     60. A(H   4,O   3,H   5)          103.5158         0.313194   
     61. A(H  13,H   4,H  14)           42.2495         0.099860   
     62. A(O   3,H   4,H  14)          151.1048         0.137699   
     63. A(O   3,H   4,H  13)          151.4787         0.137642   
     64. A(O  12,H   4,H  19)          128.5914         0.117169   
     65. A(O  12,H   4,H  14)           26.3265         0.117631   
     66. A(H  14,H   4,H  19)          110.5690         0.099697   
     67. A(O  12,H   4,H  13)           26.6655         0.117598   
     68. A(H  13,H   4,H  19)          110.7411         0.099684   
     69. A(O   3,H   4,H  19)           47.8768         0.136913   
     70. A(O   3,H   5,H  19)           49.1296         0.139603   
     71. A(H   7,O   6,H  22)          102.3565         0.207340   
     72. A(H   7,O   6,H   8)          104.7700         0.316279   
     73. A(H   7,O   6,H  20)           83.7249         0.190354   
     74. A(H   8,O   6,H  20)          126.1996         0.191722   
     75. A(H  20,O   6,H  22)          114.1490         0.142485   
     76. A(H   8,O   6,H  22)          115.3721         0.208937   
     77. A(H   1,H   7,H  20)           56.2092         0.101981   
     78. A(O   0,H   7,H  20)           86.5735         0.114957   
     79. A(O   6,H   7,H  20)           68.1896         0.140607   
     80. A(O   6,H   7,H  22)           51.5710         0.136125   
     81. A(H   1,H   7,O   6)          123.1920         0.145409   
     82. A(O   0,H   7,O   6)          151.7436         0.201793   
     83. A(O   0,H   7,H  22)          121.0579         0.112703   
     84. A(H  20,H   7,H  22)           93.3247         0.099845   
     85. A(H   1,H   7,H  22)          117.9255         0.100854   
     86. A(O   0,H   7,H   1)           30.3727         0.117372   
     87. A(H  10,O   9,H  23)          103.5193         0.209146   
     88. A(H  10,O   9,H  11)          103.1818         0.315625   
     89. A(H  11,O   9,H  23)           97.0109         0.207194   
     90. A(O   9,H  10,H  23)           51.0401         0.136625   
     91. A(O   9,H  11,O  15)          168.9711         0.209628   
     92. A(H  17,H  11,H  23)          104.0609         0.099279   
     93. A(O  15,H  11,H  23)          113.6560         0.116026   
     94. A(O   9,H  11,H  23)           55.3580         0.138948   
     95. A(O  15,H  11,H  17)           25.5964         0.113823   
     96. A(O   9,H  11,H  17)          150.1184         0.134878   
     97. A(H  13,O  12,H  14)          102.1011         0.311859   
     98. A(H   4,O  12,H  14)          105.9105         0.219181   
     99. A(H   4,O  12,H  13)          105.4796         0.218074   
    100. A(H  22,H  13,H  23)           43.0581         0.100391   
    101. A(O  21,H  13,H  23)           28.7606         0.118163   
    102. A(H   4,H  13,H  23)          148.4426         0.100665   
    103. A(O  21,H  13,H  22)           26.2739         0.115480   
    104. A(O  12,H  13,H  22)          149.6243         0.136806   
    105. A(H   4,H  13,O  21)          134.6143         0.116117   
    106. A(O  12,H  13,O  21)          170.6117         0.211392   
    107. A(H   4,H  13,H  22)          110.6734         0.099592   
    108. A(H   4,H  13,O  12)           47.8550         0.137957   
    109. A(O  12,H  13,H  23)          143.0255         0.141650   
    110. A(H   4,H  14,O  15)          132.0111         0.114615   
    111. A(O  12,H  14,O  15)          163.7976         0.205466   
    112. A(H   4,H  14,O  12)           47.7630         0.138434   
    113. A(H  16,O  15,H  17)          105.8683         0.314314   
    114. A(H  14,O  15,H  17)          105.6793         0.204284   
    115. A(H  14,O  15,H  16)          125.2197         0.206946   
    116. A(H  11,O  15,H  14)           92.6897         0.151760   
    117. A(H  11,O  15,H  17)          105.8081         0.208891   
    118. A(H  11,O  15,H  16)          119.6010         0.211660   
    119. A(O   0,H  17,O  15)          167.1142         0.216483   
    120. A(O   0,H  17,H  11)          121.7841         0.115395   
    121. A(H  11,H  17,O  15)           48.5955         0.134598   
    122. A(H   1,O  18,H  20)           89.1765         0.218315   
    123. A(H  19,O  18,H  20)          103.8309         0.312129   
    124. A(H   1,O  18,H  19)          105.2956         0.215967   
    125. A(H   1,H  19,H   5)          147.4555         0.099851   
    126. A(H   5,H  19,O  18)          155.2669         0.138341   
    127. A(O   3,H  19,H   4)           26.6453         0.116830   
    128. A(H   1,H  19,H   4)          106.5081         0.099559   
    129. A(H   4,H  19,O  18)          151.3163         0.137016   
    130. A(H   1,H  19,O   3)          129.7326         0.116923   
    131. A(H   4,H  19,H   5)           42.4676         0.099814   
    132. A(O   3,H  19,H   5)           26.2406         0.117598   
    133. A(H   1,H  19,O  18)           48.0551         0.137177   
    134. A(O   6,H  20,H   7)           28.0856         0.112325   
    135. A(H   1,H  20,H   7)           59.0576         0.102657   
    136. A(H   7,H  20,O  18)          119.0419         0.140951   
    137. A(H   1,H  20,O   6)           86.6176         0.115822   
    138. A(O   6,H  20,O  18)          145.5067         0.191030   
    139. A(H   1,H  20,O  18)           60.0845         0.148743   
    140. A(H  13,O  21,H  23)           95.1078         0.211924   
    141. A(H  13,O  21,H  22)          103.6995         0.212246   
    142. A(H  22,O  21,H  23)          103.3361         0.312472   
    143. A(O   6,H  22,H   7)           26.0725         0.113868   
    144. A(H   7,H  22,H  13)          109.8150         0.099121   
    145. A(H   7,H  22,O  21)          147.5319         0.136105   
    146. A(H  13,H  22,O  21)           50.0266         0.137139   
    147. A(O   6,H  22,H  13)          124.3542         0.114415   
    148. A(O   6,H  22,O  21)          172.9787         0.207287   
    149. A(H  13,H  23,O  21)           56.1317         0.141879   
    150. A(H  10,H  23,H  11)           41.6626         0.099497   
    151. A(O   9,H  23,H  11)           27.6311         0.115480   
    152. A(H  11,H  23,H  13)           89.2067         0.100849   
    153. A(H  11,H  23,O  21)          140.7507         0.138942   
    154. A(O   9,H  23,H  10)           25.4407         0.113839   
    155. A(H  10,H  23,H  13)          104.7118         0.100114   
    156. A(H  10,H  23,O  21)          153.9751         0.135846   
    157. A(O   9,H  23,H  13)          113.3937         0.117037   
    158. A(O   9,H  23,O  21)          168.3354         0.207180   
    159. D(H  20,H   1,O   0,H  17)   -106.5498         0.327749   
    160. D(H   7,H   1,O   0,H  17)   -108.3469         0.327749   
    161. D(H  19,H   1,O   0,H  17)    -39.8356         0.327749   
    162. D(O  18,H   1,O   0,H   2)    128.2071         0.327749   
    163. D(H  20,H   1,O   0,H   7)      1.7971         0.327749   
    164. D(H   7,H   1,O   0,H   2)    117.7007         0.327749   
    165. D(O  18,H   1,O   0,H   7)     10.5064         0.327749   
    166. D(H  19,H   1,O   0,H   2)   -173.7880         0.327749   
    167. D(O  18,H   1,O   0,H  17)    -97.8405         0.327749   
    168. D(H  20,H   1,O   0,H   2)    119.4978         0.327749   
    169. D(H  19,H   1,O   0,H   7)     68.5113         0.327749   
    170. D(H  13,H   4,O   3,H   5)     61.2504         0.311947   
    171. D(H  13,H   4,O   3,H  19)    -48.3892         0.311947   
    172. D(H  19,H   4,O   3,H   5)    109.6396         0.311947   
    173. D(H  14,H   4,O   3,H  19)     48.8389         0.311947   
    174. D(H  14,H   4,O   3,H   5)    158.4784         0.311947   
    175. D(H  19,H   5,O   3,H   4)   -110.2679         0.325856   
    176. D(H  22,H   7,O   0,H  17)     19.4588         0.001894   
    177. D(O   0,H   7,O   6,H  22)    -85.1160         0.389870   
    178. D(O   6,H   7,H   1,O  18)    -11.7036         0.001600   
    179. D(H   1,H   7,O   6,H  22)   -101.2649         0.389870   
    180. D(H  22,H   7,O   6,H  20)    113.4063         0.389870   
    181. D(O   6,H   7,H   1,H  20)    -13.5893         0.001600   
    182. D(O   6,H   7,H   1,H  19)     14.8450         0.001600   
    183. D(H   1,H   7,O   6,H   8)    137.9777         0.389870   
    184. D(H  22,H   7,O   0,H   2)    162.8948         0.001894   
    185. D(H   1,H   7,O   6,H  20)     12.1414         0.389870   
    186. D(O   6,H   7,H   1,O   0)    164.9050         0.001600   
    187. D(H  22,H   7,O   0,H   1)    -93.0736         0.001894   
    188. D(H  20,H   7,O   0,H  17)    111.2789         0.001894   
    189. D(H  20,H   7,H   1,O   0)    178.4943         0.001600   
    190. D(H  20,H   7,O   0,H   1)     -1.2536         0.001894   
    191. D(O   6,H   7,O   0,H   1)    -27.4086         0.001894   
    192. D(H  22,H   7,H   1,H  20)    -73.9944         0.001600   
    193. D(H   1,H   7,O   0,H   2)   -104.0316         0.001894   
    194. D(H  22,H   7,O   6,H   8)   -120.7574         0.389870   
    195. D(H  22,H   7,H   1,O  18)    -72.1087         0.001600   
    196. D(H  22,H   7,H   1,H  19)    -45.5601         0.001600   
    197. D(H  22,H   7,H   1,O   0)    104.4999         0.001600   
    198. D(H  20,H   7,H   1,O  18)      1.8856         0.001600   
    199. D(O   0,H   7,O   6,H   8)    154.1266         0.389870   
    200. D(O   6,H   7,O   0,H  17)     85.1238         0.001894   
    201. D(O   0,H   7,O   6,H  20)     28.2903         0.389870   
    202. D(H  20,H   7,H   1,H  19)     28.4343         0.001600   
    203. D(O   0,H   7,H   1,H  19)   -150.0600         0.001600   
    204. D(H  20,H   7,O   6,H   8)    125.8363         0.389870   
    205. D(O   0,H   7,H   1,H  20)   -178.4943         0.001600   
    206. D(O   6,H   7,O   0,H   2)   -131.4402         0.001894   
    207. D(H  20,H   7,O   6,H  22)   -113.4063         0.389870   
    208. D(H  20,H   7,O   0,H   2)   -105.2852         0.001894   
    209. D(O   0,H   7,H   1,O  18)   -176.6086         0.001600   
    210. D(H   1,H   7,O   0,H  17)    112.5325         0.001894   
    211. D(H  23,H  10,O   9,H  11)    100.6756         0.325406   
    212. D(H  23,H  11,O   9,H  10)   -105.7066         0.327013   
    213. D(H  17,H  11,O   9,H  23)    -52.4297         0.327013   
    214. D(H  17,H  11,O   9,H  10)   -158.1362         0.327013   
    215. D(O  15,H  11,O   9,H  23)      5.3500         0.327013   
    216. D(O  15,H  11,O   9,H  10)   -100.3566         0.327013   
    217. D(H  14,O  12,O   3,H  19)     53.2176         0.001502   
    218. D(H  13,O  12,O   3,H  19)    -53.9597         0.001502   
    219. D(H  13,O  12,O   3,H   5)     55.2589         0.001502   
    220. D(H  14,O  12,O   3,H   5)    162.4362         0.001502   
    221. D(H  13,O  12,H   4,H  19)    -54.5846         0.002878   
    222. D(H  14,O  12,H   4,H  19)     53.1818         0.002878   
    223. D(H  14,O  12,H   4,H  13)    107.7663         0.002878   
    224. D(H  13,O  12,H   4,H  14)   -107.7663         0.002878   
    225. D(H  23,H  13,O  12,H   4)    135.1290         0.335440   
    226. D(H  23,H  13,O  12,H  14)     24.6237         0.335440   
    227. D(O  21,H  13,O  12,H   4)    109.4676         0.335440   
    228. D(H  23,H  13,H   4,O  12)   -125.8252         0.001531   
    229. D(H  23,H  13,H   4,H  14)    -86.9122         0.001531   
    230. D(H  22,H  13,H   4,H  14)   -115.5309         0.001531   
    231. D(H  22,H  13,H   4,O  12)   -154.4438         0.001531   
    232. D(O  21,H  13,O  12,H  14)     -1.0377         0.335440   
    233. D(H  22,H  13,H   4,H  19)    -17.3765         0.001531   
    234. D(H  22,H  13,H   4,O   3)     18.9925         0.001531   
    235. D(H  23,H  13,H   4,O   3)     47.6112         0.001531   
    236. D(H  23,H  13,H   4,H  19)     11.2422         0.001531   
    237. D(H  22,H  13,O  12,H   4)     52.9573         0.335440   
    238. D(H  22,H  13,O  12,H  14)    -57.5479         0.335440   
    239. D(O  21,H  13,H   4,H  19)    -30.4552         0.001531   
    240. D(O  21,H  13,H   4,O   3)      5.9138         0.001531   
    241. D(O  12,H  13,H   4,O   3)    173.4363         0.001531   
    242. D(O  12,H  13,H   4,H  14)     38.9130         0.001531   
    243. D(O  21,H  13,H   4,O  12)   -167.5226         0.001531   
    244. D(O  21,H  13,H   4,H  14)   -128.6096         0.001531   
    245. D(H   4,H  13,O  12,H  14)   -110.5053         0.335440   
    246. D(O  12,H  13,H   4,H  19)    137.0673         0.001531   
    247. D(O  15,H  14,O  12,H   4)    -96.6082         0.313793   
    248. D(O  15,H  14,O  12,H  13)     13.5705         0.313793   
    249. D(H   4,H  14,O  12,H  13)    110.1787         0.313793   
    250. D(O  15,H  14,H   4,H  13)    118.6292         0.001527   
    251. D(O  15,H  14,H   4,O  12)    158.0965         0.001527   
    252. D(O  15,H  14,H   4,H  19)     20.0340         0.001527   
    253. D(O  15,H  14,H   4,O   3)    -16.5801         0.001527   
    254. D(O  12,H  14,H   4,H  13)    -39.4673         0.001527   
    255. D(O  12,H  14,H   4,H  19)   -138.0625         0.001527   
    256. D(O  12,H  14,H   4,O   3)   -174.6766         0.001527   
    257. D(H  11,O  15,H  14,H   4)   -128.1502         0.001953   
    258. D(H  17,O  15,H  14,H   4)    -20.9061         0.001953   
    259. D(H  17,O  15,H  14,O  12)     60.9117         0.001953   
    260. D(H  16,O  15,H  14,H   4)    102.1721         0.001953   
    261. D(H  16,O  15,H  14,O  12)   -176.0101         0.001953   
    262. D(H  14,O  15,H  11,O   9)     29.8098         0.002202   
    263. D(H  16,O  15,H  11,H  17)   -119.1877         0.002202   
    264. D(H  16,O  15,H  11,O   9)    163.4954         0.002202   
    265. D(H  14,O  15,H  11,H  17)    107.1267         0.002202   
    266. D(H  14,O  15,H  11,H  23)     34.6138         0.002202   
    267. D(H  17,O  15,H  11,H  23)    -72.5129         0.002202   
    268. D(H  11,O  15,H  14,O  12)    -46.3324         0.001953   
    269. D(H  17,O  15,H  11,O   9)    -77.3169         0.002202   
    270. D(H  16,O  15,H  11,H  23)    168.2993         0.002202   
    271. D(O   0,H  17,O  15,H  16)    173.0301         0.305177   
    272. D(O  15,H  17,O   0,H   2)   -150.2488         0.002654   
    273. D(O   0,H  17,H  11,O  15)   -169.2833         0.001514   
    274. D(O  15,H  17,H  11,H  23)    115.7598         0.001514   
    275. D(O  15,H  17,H  11,O   9)    157.9995         0.001514   
    276. D(H  11,H  17,O   0,H   7)     30.9301         0.002654   
    277. D(H  11,H  17,O   0,H   2)   -111.5353         0.002654   
    278. D(H  11,H  17,O   0,H   1)    122.2444         0.002654   
    279. D(O   0,H  17,H  11,O   9)    -11.2838         0.001514   
    280. D(O  15,H  17,O   0,H   7)     -7.7834         0.002654   
    281. D(O   0,H  17,O  15,H  14)    -52.3402         0.305177   
    282. D(O   0,H  17,H  11,H  23)    -53.5235         0.001514   
    283. D(O  15,H  17,O   0,H   1)     83.5308         0.002654   
    284. D(O   0,H  17,O  15,H  11)     45.1369         0.305177   
    285. D(H  11,H  17,O  15,H  16)    127.8932         0.305177   
    286. D(H  11,H  17,O  15,H  14)    -97.4770         0.305177   
    287. D(H   1,O  18,O   3,H   5)   -142.5388         0.001502   
    288. D(H   1,O  18,O   3,H   4)    -33.7641         0.001502   
    289. D(H  20,O  18,O   3,H   5)    -49.9536         0.001502   
    290. D(H  20,O  18,O   3,H   4)     58.8211         0.001502   
    291. D(H  20,O  18,H   1,H   7)     -3.3375         0.002729   
    292. D(H  20,O  18,H   1,H  19)   -104.1186         0.002729   
    293. D(H  20,O  18,H   1,O   0)    -12.9719         0.002729   
    294. D(H  19,O  18,H   1,H   7)    100.7811         0.002729   
    295. D(H  19,O  18,H   1,H  20)    104.1186         0.002729   
    296. D(H  19,O  18,H   1,O   0)     91.1467         0.002729   
    297. D(H   5,H  19,O  18,H   1)   -139.2848         0.319631   
    298. D(H   5,H  19,O  18,H  20)    -46.3049         0.319631   
    299. D(H   4,H  19,O  18,H   1)    -32.1554         0.319631   
    300. D(H   4,H  19,O  18,H  20)     60.8245         0.319631   
    301. D(H   1,H  19,O  18,H  20)     92.9799         0.319631   
    302. D(H   1,H  19,H   5,O   3)     60.5631         0.001528   
    303. D(O  18,H  19,H   5,O   3)    176.1564         0.001528   
    304. D(H   5,H  19,H   4,H  14)    164.5653         0.001527   
    305. D(H   5,H  19,H   4,O  12)    142.2810         0.001527   
    306. D(H   5,H  19,H   4,O   3)    -38.2997         0.001527   
    307. D(O   3,H  19,H   4,H  14)   -157.1350         0.001527   
    308. D(O   3,H  19,H   4,O  12)   -179.4194         0.001527   
    309. D(H   1,H  19,H   4,H  14)     -3.5075         0.001527   
    310. D(H   1,H  19,H   4,H  13)    -48.8142         0.001527   
    311. D(H   1,H  19,H   4,O  12)    -25.7918         0.001527   
    312. D(H   1,H  19,H   4,O   3)    153.6276         0.001527   
    313. D(O  18,H  19,H   4,H  14)     20.8782         0.001527   
    314. D(O  18,H  19,H   4,H  13)    -24.4285         0.001527   
    315. D(O  18,H  19,H   4,O  12)     -1.4062         0.001527   
    316. D(O  18,H  19,H   4,O   3)    178.0132         0.001527   
    317. D(H   5,H  19,O   3,H   4)    108.8395         0.002730   
    318. D(H   4,H  19,O   3,H   5)   -108.8395         0.002730   
    319. D(H   1,H  19,O   3,H   5)   -142.4677         0.002730   
    320. D(H   1,H  19,O   3,H   4)    -33.6282         0.002730   
    321. D(H   5,H  19,H   1,H   7)     66.7458         0.001528   
    322. D(H   5,H  19,H   1,H  20)    104.5869         0.001528   
    323. D(H   5,H  19,H   1,O  18)    149.5143         0.001528   
    324. D(O   3,H  19,H   4,H  13)    157.5583         0.001527   
    325. D(H   5,H  19,H   1,O   0)      7.1527         0.001528   
    326. D(H   4,H  19,H   1,H   7)     81.7794         0.001528   
    327. D(H   4,H  19,H   1,H  20)    119.6204         0.001528   
    328. D(H   5,H  19,H   4,H  13)    119.2586         0.001527   
    329. D(O   3,H  19,H   1,H   7)     96.7924         0.001528   
    330. D(O   3,H  19,H   1,H  20)    134.6335         0.001528   
    331. D(O  18,H  19,H   1,H  20)    -44.9274         0.001528   
    332. D(H   4,H  19,H   5,O   3)     38.9498         0.001528   
    333. D(O  18,H  19,H   1,O   0)   -142.3615         0.001528   
    334. D(O   3,H  19,H   1,O  18)    179.5609         0.001528   
    335. D(H   4,H  19,H   1,O   0)     22.1863         0.001528   
    336. D(O   3,H  19,H   1,O   0)     37.1994         0.001528   
    337. D(H   4,H  19,H   1,O  18)    164.5479         0.001528   
    338. D(O  18,H  19,H   1,H   7)    -82.7685         0.001528   
    339. D(H   7,H  20,O  18,H   1)      3.6048         0.364522   
    340. D(H   7,H  20,O  18,H  19)   -101.9503         0.364522   
    341. D(O   6,H  20,O  18,H   1)     16.7447         0.364522   
    342. D(O   6,H  20,O  18,H  19)    -88.8104         0.364522   
    343. D(H   1,H  20,O  18,H  19)   -105.5551         0.364522   
    344. D(O   6,H  20,H   7,H  22)    -46.0650         0.001543   
    345. D(O   6,H  20,H   7,O   0)   -167.0105         0.001543   
    346. D(H   1,H  20,H   7,H  22)    121.7080         0.001543   
    347. D(H   1,H  20,H   7,O   0)      0.7626         0.001543   
    348. D(O  18,H  20,H   7,H  22)    118.0651         0.001543   
    349. D(O  18,H  20,H   7,H   1)     -3.6430         0.001543   
    350. D(O  18,H  20,H   7,O   0)     -2.8804         0.001543   
    351. D(O  18,H  20,H   7,O   6)    164.1301         0.001543   
    352. D(H   7,H  20,O   6,H  22)    100.7562         0.001640   
    353. D(H   7,H  20,O   6,H   8)   -103.7302         0.001640   
    354. D(H   1,H  20,O   6,H  22)     90.2722         0.001640   
    355. D(H   1,H  20,O   6,H   8)   -114.2142         0.001640   
    356. D(H   1,H  20,O   6,H   7)    -10.4840         0.001640   
    357. D(O  18,H  20,O   6,H  22)     75.7854         0.001640   
    358. D(O  18,H  20,O   6,H   8)   -128.7010         0.001640   
    359. D(O  18,H  20,O   6,H   7)    -24.9708         0.001640   
    360. D(H   1,H  20,H   7,O   6)    167.7731         0.001543   
    361. D(H   7,H  20,H   1,H  19)   -138.0299         0.001648   
    362. D(H   7,H  20,H   1,O  18)   -176.3254         0.001648   
    363. D(H   7,H  20,H   1,O   0)     -1.8158         0.001648   
    364. D(O   6,H  20,H   7,H   1)   -167.7731         0.001543   
    365. D(O   6,H  20,H   1,H   7)      5.7322         0.001648   
    366. D(O   6,H  20,H   1,H  19)   -132.2977         0.001648   
    367. D(O   6,H  20,H   1,O  18)   -170.5932         0.001648   
    368. D(O   6,H  20,H   1,O   0)      3.9164         0.001648   
    369. D(O  18,H  20,H   1,H   7)    176.3254         0.001648   
    370. D(O  18,H  20,H   1,H  19)     38.2955         0.001648   
    371. D(O  18,H  20,H   1,O   0)    174.5096         0.001648   
    372. D(H  23,O  21,H  13,H  22)    105.0791         0.002338   
    373. D(H  23,O  21,H  13,H   4)    133.6524         0.002338   
    374. D(H  23,O  21,H  13,O  12)     32.7746         0.002338   
    375. D(H  22,O  21,H  13,H  23)   -105.0791         0.002338   
    376. D(H  22,O  21,H  13,H   4)     28.5733         0.002338   
    377. D(H  22,O  21,H  13,O  12)    -72.3045         0.002338   
    378. D(H   7,H  22,O  21,H  13)     60.4283         0.336356   
    379. D(H   7,H  22,O  21,H  23)    -38.3124         0.336356   
    380. D(O   6,H  22,O  21,H  13)     38.5043         0.336356   
    381. D(H  13,H  22,O  21,H  23)    -98.7406         0.336356   
    382. D(H   7,H  22,H  13,H  23)   -107.3651         0.001523   
    383. D(H   7,H  22,H  13,O  21)   -150.2454         0.001523   
    384. D(H   7,H  22,H  13,O  12)     11.8562         0.001523   
    385. D(O   6,H  22,H  13,H  23)   -131.8305         0.001523   
    386. D(O   6,H  22,H  13,O  21)   -174.7108         0.001523   
    387. D(O   6,H  22,H  13,H   4)     26.6289         0.001523   
    388. D(O   6,H  22,H  13,O  12)    -12.6092         0.001523   
    389. D(O  21,H  22,H  13,H  23)     42.8803         0.001523   
    390. D(O  21,H  22,H  13,H   4)   -158.6602         0.001523   
    391. D(O  21,H  22,H  13,O  12)    162.1016         0.001523   
    392. D(O   6,H  22,H   7,H  20)     58.5896         0.001519   
    393. D(O   6,H  22,H   7,H   1)    111.7391         0.001519   
    394. D(O   6,H  22,H   7,O   0)    146.5894         0.001519   
    395. D(H  13,H  22,H   7,H  20)    -70.3397         0.001519   
    396. D(H  13,H  22,H   7,H   1)    -17.1901         0.001519   
    397. D(H  13,H  22,H   7,O   0)     17.6602         0.001519   
    398. D(H  13,H  22,H   7,O   6)   -128.9293         0.001519   
    399. D(O  21,H  22,H   7,H  20)   -115.4498         0.001519   
    400. D(O  21,H  22,H   7,H   1)    -62.3002         0.001519   
    401. D(O  21,H  22,H   7,O   0)    -27.4499         0.001519   
    402. D(O  21,H  22,H   7,O   6)   -174.0394         0.001519   
    403. D(H   7,H  22,O   6,H  20)    -88.6014         0.002073   
    404. D(H   7,H  22,H  13,H   4)     51.0944         0.001523   
    405. D(H   7,H  22,O   6,H   8)    113.1249         0.002073   
    406. D(H  13,H  22,O   6,H  20)    -26.1648         0.002073   
    407. D(H  13,H  22,O   6,H   8)    175.5616         0.002073   
    408. D(O   6,H  22,O  21,H  23)    -60.2363         0.336356   
    409. D(H  13,H  22,O   6,H   7)     62.4366         0.002073   
    410. D(O  21,H  22,O   6,H  20)    -61.4686         0.002073   
    411. D(O  21,H  22,O   6,H   8)    140.2577         0.002073   
    412. D(O  21,H  22,O   6,H   7)     27.1328         0.002073   
    413. D(O  21,H  23,O   9,H  10)     99.4246         0.002082   
    414. D(H  11,H  23,O  21,H  13)    -32.0217         0.352279   
    415. D(H  10,H  23,O  21,H  13)     47.3514         0.352279   
    416. D(H  10,H  23,O  21,H  22)    152.7512         0.352279   
    417. D(O   9,H  23,O  21,H  13)    -27.6314         0.352279   
    418. D(O   9,H  23,O  21,H  22)     77.7683         0.352279   
    419. D(H  13,H  23,O  21,H  22)    105.3998         0.352279   
    420. D(H  11,H  23,H  13,H  22)    121.6378         0.001558   
    421. D(H  11,H  23,H  13,O  21)    160.3963         0.001558   
    422. D(H  11,H  23,H  13,O  12)    -11.1612         0.001558   
    423. D(H  10,H  23,H  13,H  22)    160.7325         0.001558   
    424. D(H  10,H  23,H  13,O  21)   -160.5090         0.001558   
    425. D(H  10,H  23,H  13,O  12)     27.9335         0.001558   
    426. D(O   9,H  23,H  13,H  22)    135.3776         0.001558   
    427. D(O   9,H  23,H  13,O  21)    174.1360         0.001558   
    428. D(O   9,H  23,H  13,O  12)      2.5786         0.001558   
    429. D(O  21,H  23,H  13,H  22)    -38.7585         0.001558   
    430. D(O  21,H  23,H  13,H   4)    -79.7827         0.001558   
    431. D(O  21,H  23,H  13,O  12)   -171.5574         0.001558   
    432. D(H  10,H  23,H  11,H  17)   -165.4883         0.001533   
    433. D(H  10,H  23,H  11,O  15)   -140.3509         0.001533   
    434. D(H  10,H  23,H  11,O   9)     38.5333         0.001533   
    435. D(O   9,H  23,H  11,H  17)    155.9784         0.001533   
    436. D(O   9,H  23,H  13,H   4)     94.3533         0.001558   
    437. D(O   9,H  23,H  11,O  15)   -178.8842         0.001533   
    438. D(H  13,H  23,H  11,H  17)    -52.0578         0.001533   
    439. D(H  13,H  23,H  11,O  15)    -26.9203         0.001533   
    440. D(H  10,H  23,H  13,H   4)    119.7083         0.001558   
    441. D(H  13,H  23,H  11,O   9)    151.9638         0.001533   
    442. D(O  21,H  23,H  11,H  17)    -25.9340         0.001533   
    443. D(O  21,H  23,H  11,O  15)     -0.7966         0.001533   
    444. D(H  11,H  23,H  13,H   4)     80.6136         0.001558   
    445. D(O  21,H  23,H  11,O   9)    178.0876         0.001533   
    446. D(H  11,H  23,H  10,O   9)    -42.2655         0.001516   
    447. D(H  13,H  23,H  10,O   9)   -113.8069         0.001516   
    448. D(O  21,H  23,H  10,O   9)   -152.9619         0.001516   
    449. D(H  11,H  23,O   9,H  10)    105.4190         0.002082   
    450. D(H  10,H  23,O   9,H  11)   -105.4190         0.002082   
    451. D(H  13,H  23,O   9,H  11)    -30.8023         0.002082   
    452. D(H  11,H  23,O  21,H  22)     73.3781         0.352279   
    453. D(H  13,H  23,O   9,H  10)     74.6167         0.002082   
    454. D(O  21,H  23,O   9,H  11)     -5.9944         0.002082   
    -----------------------------------------------------------------

Number of atoms                         .... 24
Number of degrees of freedom            .... 454

         *************************************************************
         *                GEOMETRY OPTIMIZATION CYCLE   1            *
         *************************************************************
---------------------------------
CARTESIAN COORDINATES (ANGSTROEM)
---------------------------------
  O      7.715182    4.861496    4.058204
  H      7.710659    5.702055    4.601907
  H      8.581081    4.461444    4.212503
  O      5.037090    7.494496    5.823311
  H      4.534968    6.849510    5.248585
  H      4.738723    8.357704    5.507876
  O      7.232932    6.853831    2.278380
  H      7.531158    6.001402    2.665535
  H      7.813750    6.996218    1.519159
  O      4.843004    3.553712    1.528354
  H      3.928644    3.243486    1.487856
  H      5.076464    3.441913    2.479878
  O      3.801181    5.760258    4.269678
  H      4.044747    6.027817    3.346591
  H      4.299223    4.921964    4.379042
  O      5.426774    3.572158    4.163694
  H      5.452181    2.775073    4.708845
  H      6.335463    3.969612    4.221125
  O      7.553317    7.292954    5.020982
  H      6.611150    7.391316    5.330652
  H      7.512903    7.523610    4.074950
  O      4.619914    6.257043    1.761242
  H      5.557504    6.523253    1.889937
  H      4.683240    5.295562    1.550932

----------------------------
CARTESIAN COORDINATES (A.U.)
----------------------------
  NO LB      ZA    FRAG     MASS         X           Y           Z
   0 O     8.0000    0    15.999   14.579581    9.186897    7.668893
   1 H     1.0000    0     1.008   14.571034   10.775322    8.696343
   2 H     1.0000    0     1.008   16.215892    8.430907    7.960477
   3 O     8.0000    0    15.999    9.518720   14.162545   11.004464
   4 H     1.0000    0     1.008    8.569848   12.943697    9.918388
   5 H     1.0000    0     1.008    8.954889   15.793772   10.408377
   6 O     8.0000    0    15.999   13.668261   12.951864    4.305515
   7 H     1.0000    0     1.008   14.231825   11.341006    5.037132
   8 H     1.0000    0     1.008   14.765848   13.220937    2.870794
   9 O     8.0000    0    15.999    9.151950    6.715543    2.888170
  10 H     1.0000    0     1.008    7.424062    6.129301    2.811641
  11 H     1.0000    0     1.008    9.593126    6.504273    4.686291
  12 O     8.0000    0    15.999    7.183190   10.885311    8.068523
  13 H     1.0000    0     1.008    7.643463   11.390923    6.324140
  14 H     1.0000    0     1.008    8.124353    9.301164    8.275190
  15 O     8.0000    0    15.999   10.255116    6.750400    7.868242
  16 H     1.0000    0     1.008   10.303129    5.244129    8.898427
  17 H     1.0000    0     1.008   11.972289    7.501479    7.976771
  18 O     8.0000    0    15.999   14.273701   13.781687    9.488282
  19 H     1.0000    0     1.008   12.493263   13.967563   10.073472
  20 H     1.0000    0     1.008   14.197330   14.217563    7.700540
  21 O     8.0000    0    15.999    8.730372   11.824098    3.328266
  22 H     1.0000    0     1.008   10.502160   12.327162    3.571463
  23 H     1.0000    0     1.008    8.850041   10.007162    2.930837

--------------------------------
INTERNAL COORDINATES (ANGSTROEM)
--------------------------------
 O      0   0   0     0.000000000000     0.00000000     0.00000000
 H      1   0   0     1.001085165037     0.00000000     0.00000000
 H      1   2   0     0.966245840269   105.36436815     0.00000000
 O      2   1   3     3.442767600499   129.29731554   202.97418659
 H      4   2   1     0.999221605547    81.37973415   351.72851976
 H      4   2   1     0.966256419686   126.09278917   251.24141599
 O      2   1   3     2.636965236243    83.62722612   122.38754769
 H      7   2   1     0.982579812998    38.63893433   346.14706914
 H      7   2   1     0.966458264531   130.36614073   287.98283670
 O      8   7   2     3.809270193301   103.04035709   118.09547250
 H     10   8   7     0.966402206278   152.43222714   299.96720159
 H     10   8   7     0.986104604107    67.52483576   224.98880299
 O      5   4   2     1.638038635387   176.44057685   351.77449883
 H     13   5   4     0.991464920694   105.47956018   298.46192995
 H     13   5   4     0.981195052863   105.91045857    46.22827836
 O     12  10   8     1.724794601323   168.97106996    52.31573387
 H     16  12  10     0.966011718524   119.60101982   163.49537243
 H     16  12  10     0.993470337327   105.80805233   282.68311858
 O      2   1   3     1.652677544269   161.15755812   128.20712986
 H     19   2   1     0.996618884099   105.29560300    91.14667564
 H     19   2   1     0.974583178143    89.17645104   347.02808594
 O     14  13   5     1.701967068845   170.61167553   109.46761278
 H     22  14  13     0.983109568972   103.69949276   287.69549464
 H     22  14  13     0.986248524997    95.10776461    32.77455958

---------------------------
INTERNAL COORDINATES (A.U.)
---------------------------
 O      0   0   0     0.000000000000     0.00000000     0.00000000
 H      1   0   0     1.891776798652     0.00000000     0.00000000
 H      1   2   0     1.825940016150   105.36436815     0.00000000
 O      2   1   3     6.505887907680   129.29731554   202.97418659
 H      4   2   1     1.888255181581    81.37973415   351.72851976
 H      4   2   1     1.825960008349   126.09278917   251.24141599
 O      2   1   3     4.983142121171    83.62722612   122.38754769
 H      7   2   1     1.856806751285    38.63893433   346.14706914
 H      7   2   1     1.826341439828   130.36614073   287.98283670
 O      8   7   2     7.198477435449   103.04035709   118.09547250
 H     10   8   7     1.826235505082   152.43222714   299.96720159
 H     10   8   7     1.863467641160    67.52483576   224.98880299
 O      5   4   2     3.095444417663   176.44057685   351.77449883
 H     13   5   4     1.873597171501   105.47956018   298.46192995
 H     13   5   4     1.854189933870   105.91045857    46.22827836
 O     12  10   8     3.259389433766   168.97106996    52.31573387
 H     16  12  10     1.825497590169   119.60101982   163.49537243
 H     16  12  10     1.877386859723   105.80805233   282.68311858
 O      2   1   3     3.123107946350   161.15755812   128.20712986
 H     19   2   1     1.883336750841   105.29560300    91.14667564
 H     19   2   1     1.841695301416    89.17645104   347.02808594
 O     14  13   5     3.216251649070   170.61167553   109.46761278
 H     22  14  13     1.857807844994   103.69949276   287.69549464
 H     22  14  13     1.863739612228    95.10776461    32.77455958

---------------------
BASIS SET INFORMATION
---------------------
There are 2 groups of distinct atoms

 Group   1 Type O   : 7s4p1d contracted to 3s2p1d pattern {511/31/1}
 Group   2 Type H   : 4s1p contracted to 2s1p pattern {31/1}

Atom   0O    basis set group =>   1
Atom   1H    basis set group =>   2
Atom   2H    basis set group =>   2
Atom   3O    basis set group =>   1
Atom   4H    basis set group =>   2
Atom   5H    basis set group =>   2
Atom   6O    basis set group =>   1
Atom   7H    basis set group =>   2
Atom   8H    basis set group =>   2
Atom   9O    basis set group =>   1
Atom  10H    basis set group =>   2
Atom  11H    basis set group =>   2
Atom  12O    basis set group =>   1
Atom  13H    basis set group =>   2
Atom  14H    basis set group =>   2
Atom  15O    basis set group =>   1
Atom  16H    basis set group =>   2
Atom  17H    basis set group =>   2
Atom  18O    basis set group =>   1
Atom  19H    basis set group =>   2
Atom  20H    basis set group =>   2
Atom  21O    basis set group =>   1
Atom  22H    basis set group =>   2
Atom  23H    basis set group =>   2
[1615912565.970109] [comp0813:184229:0]            sys.c:618  UCX  ERROR shmget(size=2097152 flags=0xfb0) for mm_recv_desc failed: Operation not permitted, please check shared memory limits by 'ipcs -l'
[1615912565.980002] [comp0813:184227:0]            sys.c:618  UCX  ERROR shmget(size=2097152 flags=0xfb0) for mm_recv_desc failed: Operation not permitted, please check shared memory limits by 'ipcs -l'
[1615912565.985047] [comp0813:184228:0]            sys.c:618  UCX  ERROR shmget(size=2097152 flags=0xfb0) for mm_recv_desc failed: Operation not permitted, please check shared memory limits by 'ipcs -l'
[1615912565.989993] [comp0813:184230:0]            sys.c:618  UCX  ERROR shmget(size=2097152 flags=0xfb0) for mm_recv_desc failed: Operation not permitted, please check shared memory limits by 'ipcs -l'
[1615912566.001463] [comp0813:184229:0]            sys.c:618  UCX  ERROR shmget(size=2097152 flags=0xb80) for ucp_am_bufs failed: Operation not permitted, please check shared memory limits by 'ipcs -l'
[1615912566.001470] [comp0813:184230:0]            sys.c:618  UCX  ERROR shmget(size=2097152 flags=0xb80) for ucp_am_bufs failed: Operation not permitted, please check shared memory limits by 'ipcs -l'
[1615912566.003836] [comp0813:184227:0]            sys.c:618  UCX  ERROR shmget(size=2097152 flags=0xb80) for ucp_am_bufs failed: Operation not permitted, please check shared memory limits by 'ipcs -l'
[1615912566.005785] [comp0813:184228:0]            sys.c:618  UCX  ERROR shmget(size=2097152 flags=0xb80) for ucp_am_bufs failed: Operation not permitted, please check shared memory limits by 'ipcs -l'


           ************************************************************
           *        Program running with 4 parallel MPI-processes     *
           *              working on a common directory               *
           ************************************************************
------------------------------------------------------------------------------
                           ORCA GTO INTEGRAL CALCULATION
------------------------------------------------------------------------------

                         BASIS SET STATISTICS AND STARTUP INFO

 # of primitive gaussian shells          ...  176
 # of primitive gaussian functions       ...  304
 # of contracted shells                  ...   96
 # of contracted basis functions         ...  192
 Highest angular momentum                ...    2
 Maximum contraction depth               ...    5
 Integral package used                   ... LIBINT
 Integral threshhold            Thresh   ...  2.500e-11
 Primitive cut-off              TCut     ...  2.500e-12


------------------------------ INTEGRAL EVALUATION ----------------------------


 * One electron integrals 
 Pre-screening matrix                    ... done
 Shell pair data                         ... done (   0.001 sec)

[1615912567.159624] [comp0813:184277:0]            sys.c:618  UCX  ERROR shmget(size=2097152 flags=0xfb0) for mm_recv_desc failed: Operation not permitted, please check shared memory limits by 'ipcs -l'
[1615912567.171189] [comp0813:184280:0]            sys.c:618  UCX  ERROR shmget(size=2097152 flags=0xfb0) for mm_recv_desc failed: Operation not permitted, please check shared memory limits by 'ipcs -l'
[1615912567.185385] [comp0813:184278:0]            sys.c:618  UCX  ERROR shmget(size=2097152 flags=0xfb0) for mm_recv_desc failed: Operation not permitted, please check shared memory limits by 'ipcs -l'
[1615912567.195663] [comp0813:184281:0]            sys.c:618  UCX  ERROR shmget(size=2097152 flags=0xfb0) for mm_recv_desc failed: Operation not permitted, please check shared memory limits by 'ipcs -l'
[1615912567.214333] [comp0813:184280:0]            sys.c:618  UCX  ERROR shmget(size=2097152 flags=0xb80) for ucp_am_bufs failed: Operation not permitted, please check shared memory limits by 'ipcs -l'
[1615912567.214333] [comp0813:184277:0]            sys.c:618  UCX  ERROR shmget(size=2097152 flags=0xb80) for ucp_am_bufs failed: Operation not permitted, please check shared memory limits by 'ipcs -l'
[1615912567.215113] [comp0813:184278:0]            sys.c:618  UCX  ERROR shmget(size=2097152 flags=0xb80) for ucp_am_bufs failed: Operation not permitted, please check shared memory limits by 'ipcs -l'


           ************************************************************
           *        Program running with 4 parallel MPI-processes     *
           *              working on a common directory               *
           ************************************************************
-------------------------------------------------------------------------------
                                 ORCA SCF
-------------------------------------------------------------------------------

[1615912567.218208] [comp0813:184281:0]            sys.c:618  UCX  ERROR shmget(size=2097152 flags=0xb80) for ucp_am_bufs failed: Operation not permitted, please check shared memory limits by 'ipcs -l'
------------
SCF SETTINGS
------------
Hamiltonian:
 Density Functional     Method          .... DFT(GTOs)
 Exchange Functional    Exchange        .... PBE
   PBE kappa parameter   XKappa         ....  0.804000
   PBE mue parameter    XMuePBE         ....  0.219520
 Correlation Functional Correlation     .... PBE
   PBE beta parameter  CBetaPBE         ....  0.066725
 LDA part of GGA corr.  LDAOpt          .... PW91-LDA
 Gradients option       PostSCFGGA      .... off
 Hybrid DFT is turned on
   Fraction HF Exchange ScalHFX         ....  0.250000
   Scaling of DF-GGA-X  ScalDFX         ....  0.750000
   Scaling of DF-GGA-C  ScalDFC         ....  1.000000
   Scaling of DF-LDA-C  ScalLDAC        ....  1.000000
   Perturbative correction              ....  0.000000
   Density functional embedding theory  .... OFF
   NL short-range parameter             ....  6.900000


General Settings:
 Integral files         IntName         .... octamer
 Hartree-Fock type      HFTyp           .... RHF
 Total Charge           Charge          ....    0
 Multiplicity           Mult            ....    1
 Number of Electrons    NEL             ....   80
 Basis Dimension        Dim             ....  192
 Nuclear Repulsion      ENuc            ....    503.3689217578 Eh

Convergence Acceleration:
 DIIS                   CNVDIIS         .... on
   Start iteration      DIISMaxIt       ....    12
   Startup error        DIISStart       ....  0.200000
   # of expansion vecs  DIISMaxEq       ....     5
   Bias factor          DIISBfac        ....   1.050
   Max. coefficient     DIISMaxC        ....  10.000
 Newton-Raphson         CNVNR           .... off
 SOSCF                  CNVSOSCF        .... on
   Start iteration      SOSCFMaxIt      ....   150
   Startup grad/error   SOSCFStart      ....  0.003300
 Level Shifting         CNVShift        .... on
   Level shift para.    LevelShift      ....    0.2500
   Turn off err/grad.   ShiftErr        ....    0.0010
 Zerner damping         CNVZerner       .... off
 Static damping         CNVDamp         .... on
   Fraction old density DampFac         ....    0.7000
   Max. Damping (<1)    DampMax         ....    0.9800
   Min. Damping (>=0)   DampMin         ....    0.0000
   Turn off err/grad.   DampErr         ....    0.1000
 Fernandez-Rico         CNVRico         .... off

SCF Procedure:
 Maximum # iterations   MaxIter         ....   125
 SCF integral mode      SCFMode         .... Direct
   Integral package                     .... LIBINT
 Reset frequency        DirectResetFreq ....    20
 Integral Threshold     Thresh          ....  2.500e-11 Eh
 Primitive CutOff       TCut            ....  2.500e-12 Eh

Convergence Tolerance:
 Convergence Check Mode ConvCheckMode   .... Total+1el-Energy
 Convergence forced     ConvForced      .... 0
 Energy Change          TolE            ....  1.000e-08 Eh
 1-El. energy change                    ....  1.000e-05 Eh
 Orbital Gradient       TolG            ....  1.000e-05
 Orbital Rotation angle TolX            ....  1.000e-05
 DIIS Error             TolErr          ....  5.000e-07


Diagonalization of the overlap matrix:
Smallest eigenvalue                        ... 2.240e-02
Time for diagonalization                   ...    0.010 sec
Threshold for overlap eigenvalues          ... 1.000e-08
Number of eigenvalues below threshold      ... 0
Time for construction of square roots      ...    0.005 sec
Total time needed                          ...    0.015 sec

-------------------
DFT GRID GENERATION
-------------------

General Integration Accuracy     IntAcc      ...  4.340
Radial Grid Type                 RadialGrid  ... Gauss-Chebyshev
Angular Grid (max. acc.)         AngularGrid ... Lebedev-110
Angular grid pruning method      GridPruning ... 3 (G Style)
Weight generation scheme         WeightScheme... Becke
Basis function cutoff            BFCut       ...    1.0000e-11
Integration weight cutoff        WCut        ...    1.0000e-14
Grids for H and He will be reduced by one unit

# of grid points (after initial pruning)     ...  26432 (   0.0 sec)
# of grid points (after weights+screening)   ...  24344 (   0.1 sec)
nearest neighbour list constructed           ...    0.0 sec
Grid point re-assignment to atoms done       ...    0.0 sec
Grid point division into batches done        ...    0.0 sec
Reduced shell lists constructed in    0.1 sec

Total number of grid points                  ...    24344
Total number of batches                      ...      393
Average number of points per batch           ...       61
Average number of grid points per atom       ...     1014
Average number of shells per batch           ...    56.06 (58.40%)
Average number of basis functions per batch  ...    99.56 (51.85%)
Average number of large shells per batch     ...    37.72 (67.29%)
Average number of large basis fcns per batch ...    63.92 (64.20%)
Maximum spatial batch extension              ...  15.23, 13.70, 19.59 au
Average spatial batch extension              ...   0.82,  0.78,  0.96 au

Time for grid setup =    0.159 sec

------------------------------
INITIAL GUESS: MODEL POTENTIAL
------------------------------
Loading Hartree-Fock densities                     ... done
Calculating cut-offs                               ... done
Setting up the integral package                    ... done
Initializing the effective Hamiltonian             ... done
Starting the Coulomb interaction                   ... done (   0.0 sec)
Reading the grid                                   ... done
Mapping shells                                     ... done
Starting the XC term evaluation                    ... done (   0.1 sec)
  promolecular density results
     # of electrons  =     79.956149368
     EX              =    -69.959424096
     EC              =     -2.618231861
     EX+EC           =    -72.577655957
Transforming the Hamiltonian                       ... done (   0.0 sec)
Diagonalizing the Hamiltonian                      ... done (   0.0 sec)
Back transforming the eigenvectors                 ... done (   0.0 sec)
Now organizing SCF variables                       ... done
                      ------------------
                      INITIAL GUESS DONE (   0.4 sec)
                      ------------------

--------------------
CPCM SOLVATION MODEL
--------------------
CPCM parameters:
  Epsilon                                         ...      78.3550
  Refrac                                          ...       1.3300
  Rsolv                                           ...       1.3000
  Surface type                                    ...    GEPOL SES
  Epsilon function type                           ...         CPCM
Solvent:                                     ... WATER
SMD-CDS solvent descriptors:
  Soln                                       ...    1.3328
  Soln25                                     ...    1.3323
  Sola                                       ...    0.0000
  Solb                                       ...    0.0000
  Solg                                       ...    0.0000
  Solc                                       ...    0.0000
  Solh                                       ...    0.0000
Radii:
 Radius for O  used is    2.8724 Bohr (=   1.5200 Ang.)
 Radius for H  used is    2.2677 Bohr (=   1.2000 Ang.)
Calculating surface                               ...        done! (  0.1s)
GEPOL surface points                              ...         1097
GEPOL Volume                                      ...    1016.9779
GEPOL Surface-area                                ...     636.0485
Calculating surface distance matrix               ...        done! (  0.0s)
Performing Cholesky decomposition & store         ...        done! (  0.0s)
Overall time for CPCM initialization              ...                 0.2s
--------------
SCF ITERATIONS
--------------
ITER       Energy         Delta-E        Max-DP      RMS-DP      [F,P]     Damp
               ***  Starting incremental Fock matrix formation  ***
  0   -609.9533054236   0.000000000000 0.07553692  0.00261679  0.2671839 0.7000
  1   -610.1803617906  -0.227056367070 0.04466644  0.00154556  0.1243598 0.7000
                               ***Turning on DIIS***
  2   -610.2652006376  -0.084838846992 0.05857006  0.00200387  0.0416500 0.0000
  3   -610.4008120607  -0.135611423031 0.02746859  0.00099088  0.0654801 0.0000
  4   -610.4290806915  -0.028268630877 0.00552167  0.00021704  0.0122890 0.0000
                      *** Initiating the SOSCF procedure ***
                           *** Shutting down DIIS ***
                      *** Re-Reading the Fockian *** 
                      *** Removing any level shift *** 
ITER      Energy       Delta-E        Grad      Rot      Max-DP    RMS-DP
  5   -610.43008549  -0.0010047988  0.000560  0.000560  0.001525  0.000064
               *** Restarting incremental Fock matrix formation ***
  6   -610.43013509  -0.0000495963  0.000414  0.000556  0.001335  0.000042
  7   -610.43013579  -0.0000007061  0.000426  0.000223  0.000773  0.000017
  8   -610.43014162  -0.0000058263  0.000019  0.000028  0.000104  0.000003
  9   -610.43014160   0.0000000148  0.000026  0.000015  0.000062  0.000001
                  ***Gradient check signals convergence***
              ***Rediagonalizing the Fockian in SOSCF/NRSCF***

               *****************************************************
               *                     SUCCESS                       *
               *           SCF CONVERGED AFTER  10 CYCLES          *
               *****************************************************

Setting up the final grid:

General Integration Accuracy     IntAcc      ...  4.670
Radial Grid Type                 RadialGrid  ... Gauss-Chebyshev
Angular Grid (max. acc.)         AngularGrid ... Lebedev-302
Angular grid pruning method      GridPruning ... 3 (G Style)
Weight generation scheme         WeightScheme... Becke
Basis function cutoff            BFCut       ...    1.0000e-11
Integration weight cutoff        WCut        ...    1.0000e-14
Grids for H and He will be reduced by one unit

# of grid points (after initial pruning)     ... 104000 (   0.0 sec)
# of grid points (after weights+screening)   ...  93995 (   0.1 sec)
nearest neighbour list constructed           ...    0.0 sec
Grid point re-assignment to atoms done       ...    0.0 sec
Grid point division into batches done        ...    0.3 sec
Reduced shell lists constructed in    0.5 sec

Total number of grid points                  ...    93995
Total number of batches                      ...     1479
Average number of points per batch           ...       63
Average number of grid points per atom       ...     3916
Average number of shells per batch           ...    51.19 (53.32%)
Average number of basis functions per batch  ...    89.69 (46.71%)
Average number of large shells per batch     ...    33.82 (66.06%)
Average number of large basis fcns per batch ...    56.93 (63.48%)
Maximum spatial batch extension              ...  15.39, 13.63, 13.64 au
Average spatial batch extension              ...   0.56,  0.54,  0.60 au

Final grid set up in    0.6 sec
Final integration                            ... done (   0.3 sec)
Change in XC energy                          ...    -0.000430700
Integrated number of electrons               ...    80.000228297
Previous integrated no of electrons          ...    79.987874801

SMD CDS free energy correction energy :                 5.94250     Kcal/mol
Total Energy after SMD CDS correction =              -610.421102371 Eh

----------------
TOTAL SCF ENERGY
----------------

Total Energy       :         -610.42110237 Eh          -16610.40265 eV

Components:
Nuclear Repulsion  :          503.36892176 Eh           13697.36472 eV
Electronic Energy  :        -1113.79002413 Eh          -30307.76737 eV
One Electron Energy:        -1844.11164368 Eh          -50180.82897 eV
Two Electron Energy:          730.32161955 Eh           19873.06160 eV
CPCM Dielectric    :           -0.06068490 Eh              -1.65132 eV
SMD CDS (Gcds)     :            0.00946997 Eh               0.25769 eV

Virial components:
Potential Energy   :        -1216.48161461 Eh          -33102.14761 eV
Kinetic Energy     :          606.06051224 Eh           16491.74496 eV
Virial Ratio       :            2.00719497


DFT components:
N(Alpha)           :       40.000114148544 electrons
N(Beta)            :       40.000114148544 electrons
N(Total)           :       80.000228297089 electrons
E(X)               :      -53.576546942947 Eh       
E(C)               :       -2.695454132366 Eh       
E(XC)              :      -56.272001075313 Eh       
DFET-embed. en.    :        0.000000000000 Eh       
CPCM Solvation Model Properties:
Surface-charge          :           -0.03123045
Charge-correction       :           -0.00003488 Eh              -0.00095 eV
Free-energy (cav+disp)  :            0.00402502 Eh               0.10953 eV
Corrected G(solv)       :         -610.41711224 Eh          -16610.29408 eV

---------------
SCF CONVERGENCE
---------------

  Last Energy change         ...   -3.9773e-08  Tolerance :   1.0000e-08
  Last MAX-Density change    ...    3.2160e-06  Tolerance :   1.0000e-07
  Last RMS-Density change    ...    9.0235e-08  Tolerance :   5.0000e-09
  Last Orbital Gradient      ...    4.4585e-07  Tolerance :   1.0000e-05
  Last Orbital Rotation      ...    1.0248e-06  Tolerance :   1.0000e-05

             **** THE GBW FILE WAS UPDATED (octamer.gbw) ****
             **** DENSITY FILE WAS UPDATED (octamer.scfp) ****
             **** ENERGY FILE WAS UPDATED (octamer.en.tmp) ****
             **** THE GBW FILE WAS UPDATED (octamer.gbw) ****
             **** DENSITY FILE WAS UPDATED (octamer.scfp) ****
----------------
ORBITAL ENERGIES
----------------

  NO   OCC          E(Eh)            E(eV) 
   0   2.0000     -19.216615      -522.9107 
   1   2.0000     -19.216144      -522.8979 
   2   2.0000     -19.212862      -522.8086 
   3   2.0000     -19.199518      -522.4454 
   4   2.0000     -19.193976      -522.2946 
   5   2.0000     -19.191436      -522.2255 
   6   2.0000     -19.184734      -522.0432 
   7   2.0000     -19.184307      -522.0315 
   8   2.0000      -1.039280       -28.2803 
   9   2.0000      -1.025472       -27.9045 
  10   2.0000      -1.018429       -27.7129 
  11   2.0000      -1.013523       -27.5794 
  12   2.0000      -1.005709       -27.3667 
  13   2.0000      -0.998549       -27.1719 
  14   2.0000      -0.988936       -26.9103 
  15   2.0000      -0.979793       -26.6615 
  16   2.0000      -0.562610       -15.3094 
  17   2.0000      -0.550695       -14.9852 
  18   2.0000      -0.533024       -14.5043 
  19   2.0000      -0.529562       -14.4101 
  20   2.0000      -0.526274       -14.3206 
  21   2.0000      -0.523259       -14.2386 
  22   2.0000      -0.521072       -14.1791 
  23   2.0000      -0.517470       -14.0811 
  24   2.0000      -0.445497       -12.1226 
  25   2.0000      -0.428209       -11.6522 
  26   2.0000      -0.424820       -11.5599 
  27   2.0000      -0.407005       -11.0752 
  28   2.0000      -0.400467       -10.8973 
  29   2.0000      -0.390146       -10.6164 
  30   2.0000      -0.389419       -10.5966 
  31   2.0000      -0.368770       -10.0347 
  32   2.0000      -0.338237        -9.2039 
  33   2.0000      -0.330788        -9.0012 
  34   2.0000      -0.328661        -8.9433 
  35   2.0000      -0.318799        -8.6750 
  36   2.0000      -0.316243        -8.6054 
  37   2.0000      -0.315124        -8.5750 
  38   2.0000      -0.308746        -8.4014 
  39   2.0000      -0.305978        -8.3261 
  40   0.0000       0.053841         1.4651 
  41   0.0000       0.091876         2.5001 
  42   0.0000       0.101172         2.7530 
  43   0.0000       0.107896         2.9360 
  44   0.0000       0.129865         3.5338 
  45   0.0000       0.170414         4.6372 
  46   0.0000       0.177664         4.8345 
  47   0.0000       0.203903         5.5485 
  48   0.0000       0.219103         5.9621 
  49   0.0000       0.241424         6.5695 
  50   0.0000       0.256850         6.9892 
  51   0.0000       0.282682         7.6922 
  52   0.0000       0.287056         7.8112 
  53   0.0000       0.291358         7.9283 
  54   0.0000       0.302733         8.2378 
  55   0.0000       0.317317         8.6346 
  56   0.0000       0.491868        13.3844 
  57   0.0000       0.500046        13.6069 
  58   0.0000       0.510307        13.8862 
  59   0.0000       0.523214        14.2374 
  60   0.0000       0.534920        14.5559 
  61   0.0000       0.561352        15.2752 
  62   0.0000       0.583590        15.8803 
  63   0.0000       0.595411        16.2020 
  64   0.0000       0.625431        17.0188 
  65   0.0000       0.632751        17.2180 
  66   0.0000       0.642502        17.4834 
  67   0.0000       0.647689        17.6245 
  68   0.0000       0.661439        17.9987 
  69   0.0000       0.676980        18.4216 
  70   0.0000       0.680295        18.5118 
  71   0.0000       0.696002        18.9392 
  72   0.0000       0.859299        23.3827 
  73   0.0000       0.882592        24.0166 
  74   0.0000       0.907109        24.6837 
  75   0.0000       0.923641        25.1336 
  76   0.0000       0.939843        25.5744 
  77   0.0000       0.953708        25.9517 
  78   0.0000       0.969913        26.3927 
  79   0.0000       0.977518        26.5996 
  80   0.0000       0.996086        27.1049 
  81   0.0000       1.011946        27.5365 
  82   0.0000       1.026060        27.9205 
  83   0.0000       1.027697        27.9650 
  84   0.0000       1.033735        28.1294 
  85   0.0000       1.046960        28.4892 
  86   0.0000       1.056853        28.7584 
  87   0.0000       1.072454        29.1830 
  88   0.0000       1.087309        29.5872 
  89   0.0000       1.114292        30.3214 
  90   0.0000       1.125175        30.6176 
  91   0.0000       1.151516        31.3343 
  92   0.0000       1.175993        32.0004 
  93   0.0000       1.183510        32.2049 
  94   0.0000       1.218349        33.1530 
  95   0.0000       1.228619        33.4324 
  96   0.0000       1.246403        33.9164 
  97   0.0000       1.257359        34.2145 
  98   0.0000       1.276888        34.7459 
  99   0.0000       1.299920        35.3726 
 100   0.0000       1.308438        35.6044 
 101   0.0000       1.323530        36.0151 
 102   0.0000       1.335250        36.3340 
 103   0.0000       1.350567        36.7508 
 104   0.0000       1.362278        37.0695 
 105   0.0000       1.369255        37.2593 
 106   0.0000       1.377542        37.4848 
 107   0.0000       1.387285        37.7499 
 108   0.0000       1.399015        38.0691 
 109   0.0000       1.418230        38.5920 
 110   0.0000       1.442879        39.2627 
 111   0.0000       1.452470        39.5237 
 112   0.0000       1.461609        39.7724 
 113   0.0000       1.486586        40.4521 
 114   0.0000       1.499240        40.7964 
 115   0.0000       1.513422        41.1823 
 116   0.0000       1.528221        41.5850 
 117   0.0000       1.537826        41.8464 
 118   0.0000       1.567399        42.6511 
 119   0.0000       1.587964        43.2107 
 120   0.0000       1.621857        44.1330 
 121   0.0000       1.639253        44.6063 
 122   0.0000       1.658459        45.1290 
 123   0.0000       1.665938        45.3325 
 124   0.0000       1.680409        45.7263 
 125   0.0000       1.688433        45.9446 
 126   0.0000       1.705758        46.4160 
 127   0.0000       1.713499        46.6267 
 128   0.0000       1.778348        48.3913 
 129   0.0000       1.823484        49.6195 
 130   0.0000       1.835916        49.9578 
 131   0.0000       1.852760        50.4162 
 132   0.0000       1.872006        50.9399 
 133   0.0000       1.907908        51.9168 
 134   0.0000       1.926369        52.4192 
 135   0.0000       1.971388        53.6442 
 136   0.0000       2.209223        60.1160 
 137   0.0000       2.222476        60.4766 
 138   0.0000       2.229331        60.6632 
 139   0.0000       2.231449        60.7208 
 140   0.0000       2.241769        61.0016 
 141   0.0000       2.285819        62.2003 
 142   0.0000       2.382464        64.8302 
 143   0.0000       2.384972        64.8984 
 144   0.0000       2.410951        65.6053 
 145   0.0000       2.424226        65.9665 
 146   0.0000       2.493538        67.8526 
 147   0.0000       2.522130        68.6307 
 148   0.0000       2.562147        69.7196 
 149   0.0000       2.580571        70.2209 
 150   0.0000       2.636951        71.7551 
 151   0.0000       2.686978        73.1164 
 152   0.0000       2.911998        79.2395 
 153   0.0000       2.928584        79.6908 
 154   0.0000       2.938132        79.9506 
 155   0.0000       2.952309        80.3364 
 156   0.0000       2.962846        80.6231 
 157   0.0000       2.972004        80.8724 
 158   0.0000       2.976651        80.9988 
 159   0.0000       2.984944        81.2244 
 160   0.0000       2.987109        81.2834 
 161   0.0000       2.991592        81.4053 
 162   0.0000       2.999531        81.6214 
 163   0.0000       3.016215        82.0754 
 164   0.0000       3.033736        82.5521 
 165   0.0000       3.042306        82.7854 
 166   0.0000       3.061240        83.3006 
 167   0.0000       3.083352        83.9023 
 168   0.0000       3.169575        86.2485 
 169   0.0000       3.187433        86.7345 
 170   0.0000       3.193430        86.8976 
 171   0.0000       3.200907        87.1011 
 172   0.0000       3.206949        87.2655 
 173   0.0000       3.213921        87.4552 
 174   0.0000       3.232975        87.9737 
 175   0.0000       3.243459        88.2590 
 176   0.0000       3.464812        94.2823 
 177   0.0000       3.481551        94.7378 
 178   0.0000       3.510803        95.5338 
 179   0.0000       3.521764        95.8321 
 180   0.0000       3.550251        96.6072 
 181   0.0000       3.567860        97.0864 
 182   0.0000       3.593102        97.7733 
 183   0.0000       3.615995        98.3962 
 184   0.0000       3.844115       104.6037 
 185   0.0000       3.857559       104.9695 
 186   0.0000       3.874151       105.4210 
 187   0.0000       3.885634       105.7335 
 188   0.0000       3.888048       105.7992 
 189   0.0000       3.901715       106.1711 
 190   0.0000       3.909971       106.3957 
 191   0.0000       3.926929       106.8572 

                    ********************************
                    * MULLIKEN POPULATION ANALYSIS *
                    ********************************

-----------------------
MULLIKEN ATOMIC CHARGES
-----------------------
   0 O :   -0.349416
   1 H :    0.185713
   2 H :    0.229708
   3 O :   -0.388213
   4 H :    0.178658
   5 H :    0.208272
   6 O :   -0.333354
   7 H :    0.175348
   8 H :    0.225244
   9 O :   -0.376357
  10 H :    0.212094
  11 H :    0.172452
  12 O :   -0.410216
  13 H :    0.155831
  14 H :    0.170945
  15 O :   -0.346855
  16 H :    0.225240
  17 H :    0.197265
  18 O :   -0.399779
  19 H :    0.177496
  20 H :    0.166396
  21 O :   -0.406405
  22 H :    0.168754
  23 H :    0.161178
Sum of atomic charges:    0.0000000

--------------------------------
MULLIKEN REDUCED ORBITAL CHARGES
--------------------------------
  0 O s       :     3.678652  s :     3.678652
      pz      :     1.729902  p :     4.663557
      px      :     1.454485
      py      :     1.479169
      dz2     :     0.000796  d :     0.007207
      dxz     :     0.000829
      dyz     :     0.002089
      dx2y2   :     0.002519
      dxy     :     0.000974
  1 H s       :     0.737635  s :     0.737635
      pz      :     0.021748  p :     0.076652
      px      :     0.013213
      py      :     0.041691
  2 H s       :     0.700827  s :     0.700827
      pz      :     0.016117  p :     0.069465
      px      :     0.033083
      py      :     0.020265
  3 O s       :     3.679874  s :     3.679874
      pz      :     1.761483  p :     4.700286
      px      :     1.679827
      py      :     1.258976
      dz2     :     0.000779  d :     0.008053
      dxz     :     0.001793
      dyz     :     0.002828
      dx2y2   :     0.000757
      dxy     :     0.001896
  4 H s       :     0.744648  s :     0.744648
      pz      :     0.025580  p :     0.076694
      px      :     0.021282
      py      :     0.029832
  5 H s       :     0.722049  s :     0.722049
      pz      :     0.017754  p :     0.069680
      px      :     0.017822
      py      :     0.034104
  6 O s       :     3.680515  s :     3.680515
      pz      :     1.490142  p :     4.644845
      px      :     1.639554
      py      :     1.515149
      dz2     :     0.001207  d :     0.007995
      dxz     :     0.002878
      dyz     :     0.000468
      dx2y2   :     0.001895
      dxy     :     0.001547
  7 H s       :     0.751338  s :     0.751338
      pz      :     0.022096  p :     0.073313
      px      :     0.016391
      py      :     0.034827
  8 H s       :     0.704700  s :     0.704700
      pz      :     0.030683  p :     0.070056
      px      :     0.023122
      py      :     0.016252
  9 O s       :     3.679263  s :     3.679263
      pz      :     1.487334  p :     4.688605
      px      :     1.400147
      py      :     1.801125
      dz2     :     0.004407  d :     0.008489
      dxz     :     0.000380
      dyz     :     0.000620
      dx2y2   :     0.001814
      dxy     :     0.001268
 10 H s       :     0.717926  s :     0.717926
      pz      :     0.015218  p :     0.069980
      px      :     0.035909
      py      :     0.018854
 11 H s       :     0.753619  s :     0.753619
      pz      :     0.042327  p :     0.073930
      px      :     0.015981
      py      :     0.015622
 12 O s       :     3.672642  s :     3.672642
      pz      :     1.457578  p :     4.729731
      px      :     1.806592
      py      :     1.465560
      dz2     :     0.003097  d :     0.007843
      dxz     :     0.001367
      dyz     :     0.000224
      dx2y2   :     0.000644
      dxy     :     0.002511
 13 H s       :     0.769382  s :     0.769382
      pz      :     0.040833  p :     0.074787
      px      :     0.016890
      py      :     0.017064
 14 H s       :     0.756342  s :     0.756342
      pz      :     0.015271  p :     0.072712
      px      :     0.023053
      py      :     0.034388
 15 O s       :     3.675183  s :     3.675183
      pz      :     1.702643  p :     4.664427
      px      :     1.505264
      py      :     1.456520
      dz2     :     0.000935  d :     0.007245
      dxz     :     0.000527
      dyz     :     0.002120
      dx2y2   :     0.002737
      dxy     :     0.000926
 16 H s       :     0.704786  s :     0.704786
      pz      :     0.023003  p :     0.069974
      px      :     0.015090
      py      :     0.031881
 17 H s       :     0.727264  s :     0.727264
      pz      :     0.014349  p :     0.075472
      px      :     0.039987
      py      :     0.021135
 18 O s       :     3.676420  s :     3.676420
      pz      :     1.384303  p :     4.715284
      px      :     1.527259
      py      :     1.803723
      dz2     :     0.003575  d :     0.008074
      dxz     :     0.000775
      dyz     :     0.000839
      dx2y2   :     0.002378
      dxy     :     0.000508
[...]
      7      -0.008121   0.005267  -0.011005  -0.312124  -0.286189   0.065571
      8       0.001670  -0.001768   0.003742   0.106266   0.096685  -0.021845
      9      -0.000677   0.016820   0.000101   0.000223   0.000104  -0.000036
     10      -0.000709  -0.057164  -0.000387  -0.000648  -0.000318   0.000066
     11       0.000095   0.017364   0.000097   0.000196   0.000064  -0.000023
     12       0.005296   0.025700   0.000381   0.000116   0.000159   0.000154
     13       0.005770   0.003310   0.000371  -0.000096   0.000239   0.000034
     14       0.004572   0.029855   0.000497   0.000244   0.000382   0.000026
     15      -0.001987  -0.295591  -0.001915  -0.003373  -0.001615   0.000355
     16       0.006226   0.900703   0.005831   0.010196   0.004874  -0.001065
     17      -0.002687  -0.308611  -0.002003  -0.003475  -0.001684   0.000364
     18      -0.000747  -0.000145   0.000187   0.023614  -0.024365   0.002180
     19       0.006276  -0.000061   0.000051   0.009796  -0.012806   0.001642
     20      -0.003389   0.000204  -0.000260  -0.034141   0.037554  -0.003775
     21       0.031199  -0.000036   0.000155   0.023456  -0.037896   0.005730
     22      -0.097515   0.000198   0.000133  -0.039386   0.080781  -0.014860
     23       0.042326  -0.000074  -0.000148   0.003901  -0.025281   0.006491
     24      -0.015112   0.002342  -0.003177  -0.399915   0.425726  -0.040344
     25       0.001789   0.000656  -0.000921  -0.113603   0.119738  -0.011105
     26       0.020323  -0.003151   0.004251   0.535242  -0.568801   0.053735
     27       0.000053  -0.000354   0.058498  -0.001734  -0.001762  -0.006200
     28      -0.000033  -0.000115   0.018855  -0.000535  -0.000530  -0.001703
     29       0.000079  -0.000032   0.008188  -0.000349  -0.000460  -0.002377
     30      -0.000389   0.005689  -0.936184   0.027275   0.027166   0.091850
     31      -0.000131   0.001905  -0.315013   0.009188   0.009171   0.031067
     32       0.000043   0.000402  -0.066070   0.001870   0.001831   0.005821
     33      -0.000390  -0.000058   0.008154   0.000333   0.000790   0.006998
     34       0.000206  -0.000165   0.014503  -0.000616  -0.000978  -0.004051
     35      -0.001310   0.000199  -0.059456   0.003535   0.005477   0.032051
     36      -0.000017  -0.000152   0.000105  -0.000065  -0.000137  -0.000952
     37      -0.000132   0.000559  -0.000161   0.000111   0.000268   0.001630
     38       0.000093   0.000359  -0.000000  -0.000011  -0.000056  -0.000320
     39       0.000458   0.000579  -0.000251   0.000009  -0.000260  -0.000483
     40       0.000442   0.001611   0.000383   0.000047   0.000085   0.000080
     41      -0.001538  -0.005487   0.000223  -0.000087   0.000049   0.001134
     42      -0.000611   0.003945  -0.001789   0.001082   0.002441   0.016150
     43       0.001377  -0.006972   0.002718  -0.001913  -0.004381  -0.026295
     44      -0.000158   0.001720   0.000335   0.000305   0.000769   0.004095
     45      -0.000260  -0.000020  -0.000661   0.000534   0.000558  -0.003314
     46      -0.000071   0.000094  -0.005634  -0.002897  -0.007523  -0.051522
     47      -0.000046  -0.000040   0.003326   0.002163   0.005290   0.033488
     48      -0.000119  -0.000017  -0.001246  -0.000170  -0.000618  -0.006427
     49      -0.000973  -0.001038   0.085833   0.051248   0.126673   0.809172
     50       0.000609   0.000746  -0.058591  -0.034528  -0.085424  -0.546648
     51       0.004531   0.000167   0.010924  -0.008742  -0.009877   0.053672
     52       0.002470  -0.000077   0.003120  -0.005035  -0.007804   0.006132
     53       0.000155   0.000019   0.001609  -0.000284   0.001235   0.015285
     54       0.000686  -0.001083   0.000001   0.000160   0.000245  -0.000065
     55       0.014617   0.000013  -0.000013  -0.000690  -0.000058   0.000099
     56      -0.059842   0.000733   0.000027   0.001779  -0.001295   0.000082
     57      -0.020528   0.018170   0.000032  -0.001989  -0.004184   0.001047
     58       0.006603  -0.001967   0.000007  -0.000086   0.000502  -0.000161
     59      -0.015488  -0.004688   0.000033   0.001634   0.001340  -0.000487
     60       0.017191  -0.000137   0.000014  -0.000267   0.000337  -0.000056
     61      -0.248019   0.001678   0.000143   0.007321  -0.003137  -0.000285
     62       0.955454  -0.006254  -0.000524  -0.030930   0.018153  -0.000313
     63       0.004078  -0.000019  -0.000156  -0.001044   0.001129  -0.000104
     64       0.001697   0.000015  -0.001452  -0.000357   0.000471   0.000103
     65       0.000687   0.000044  -0.000298  -0.000162   0.000203  -0.000004
     66      -0.068423   0.000279   0.003613   0.017425  -0.018835   0.001548
     67      -0.020008   0.000134   0.000534   0.004730  -0.004975   0.000324
     68      -0.010114  -0.000143   0.000290   0.002189  -0.002564   0.000353
     69       0.001414   0.000017  -0.000456  -0.000236   0.000225   0.000117
     70      -0.006476  -0.000531   0.023484   0.000700  -0.002373  -0.001931
     71      -0.001386  -0.000248   0.003723   0.000224  -0.000609  -0.000156


-----------
IR SPECTRUM
-----------

 Mode    freq (cm**-1)   T**2         TX         TY         TZ
-------------------------------------------------------------------
   6:        21.03    1.827733  ( -1.175520  -0.559048  -0.365173)
   7:        23.30   28.853814  ( -0.040805  -2.739103  -4.620548)
   8:        45.54   12.052999  ( -1.683553  -2.968158   0.639284)
   9:        52.91    2.831639  ( -1.430444  -0.795618  -0.390463)
  10:        61.51    2.535013  ( -1.217608   0.636049   0.804914)
  11:        63.00    1.273870  ( -0.611639   0.806642   0.499096)
  12:        92.69    3.024401  ( -0.585707   1.637476   0.004434)
  13:       148.18    7.495413  (  0.133453   2.309522  -1.464141)
  14:       193.42   51.420963  (  3.837091  -4.229267  -4.337165)
  15:       202.73    7.081621  ( -1.464002  -1.560347  -1.582288)
  16:       212.75   31.868294  ( -3.797487   3.259684  -2.611868)
  17:       222.52   47.679864  (  6.207255  -2.372830   1.876040)
  18:       234.94    9.677916  ( -1.511180  -2.651941   0.601218)
  19:       241.25   35.001188  (  0.104416   3.389216   4.848041)
  20:       245.34  198.278400  (  1.227773  10.589621   9.199506)
  21:       253.71   33.413442  (  1.670556   5.367724  -1.345445)
  22:       263.78   27.890769  (  3.980755  -2.518631  -2.387646)
  23:       268.53  140.536252  ( -7.068919  -8.940222  -3.261759)
  24:       290.94  140.057618  ( -8.221975   1.016906   8.451192)
  25:       310.60  183.186665  (  4.849366 -11.037523  -6.151699)
  26:       317.37   45.877704  ( -2.095214  -0.297946   6.434206)
  27:       340.02   50.896027  (  1.929139  -5.943054  -3.443045)
  28:       345.62   12.758527  (  2.898081   1.087326  -1.782519)
  29:       383.98   46.505785  ( -0.615496   3.363737   5.900188)
  30:       412.99  312.421269  ( -2.225904  11.623760 -13.128397)
  31:       451.95   72.728498  (  5.244692   2.914630  -6.060250)
  32:       464.20   60.933629  ( -1.961445  -3.099232  -6.890655)
  33:       528.78  320.241595  ( -9.971405 -14.696511  -2.196645)
  34:       581.26  135.437907  (  7.331189   0.742029  -9.007828)
  35:       618.69  141.340839  ( -2.380423  -8.389010  -8.080776)
  36:       634.63   21.069903  ( -4.553379  -0.344443  -0.466905)
  37:       655.41  155.530585  ( -3.003475 -11.403810  -4.057443)
  38:       675.90   57.805069  (  3.729422  -6.027024   2.751631)
  39:       740.82  316.615938  ( -8.591552   9.549752 -12.312734)
  40:       750.07   74.902774  (  6.553285   5.542460  -1.112819)
  41:       801.71  153.128029  ( -2.117496  10.315490   6.498838)
  42:       834.64  357.138022  (  9.343565  10.828141 -12.352619)
  43:       886.43  196.722825  (  3.023494  10.389073   8.924599)
  44:       938.20  394.750266  ( -1.635305  -8.166391 -18.038462)
  45:       963.65  117.264387  ( -6.751333  -8.466407   0.061924)
  46:      1045.36  202.165678  (-13.357276  -0.602624   4.835877)
  47:      1086.99   79.841343  (  1.458402   6.189953  -6.276854)
  48:      1585.66   82.181748  (  2.649319   0.119761   8.668824)
  49:      1611.47  103.945404  (  7.563216  -6.115319  -3.057130)
  50:      1630.48  174.589813  (-12.712298   3.497936  -0.867026)
  51:      1644.56  169.008217  ( -9.197342   3.536987  -8.479790)
  52:      1655.20  111.044548  ( -3.138633  -6.693129   7.509697)
  53:      1665.63    0.895545  (  0.250363   0.023311   0.912316)
  54:      1681.88   63.170947  (  7.144425  -3.482342  -0.037875)
  55:      1709.07  163.616262  ( -8.076853   6.097348   7.823238)
  56:      3089.11  557.719176  ( 16.730949 -15.933666  -4.890073)
  57:      3149.79  3171.918509  (-18.669196 -42.303569 -32.152569)
  58:      3269.00  1952.188411  (-40.605353   2.182399  17.280938)
  59:      3295.85  539.476190  (-19.415950  -5.805995 -11.348458)
  60:      3324.17  475.257062  (-14.998927  -6.952952  14.210760)
  61:      3420.02  1342.209067  (-11.182830 -24.687792  24.650888)
  62:      3477.18  952.149102  (  6.743223  20.790235  21.781740)
  63:      3491.90  1106.606825  ( 28.412488 -10.151135  14.010418)
  64:      3544.09  823.943765  ( -3.939781 -28.008823   4.891600)
  65:      3563.45  677.593851  ( 14.205777 -19.787107   9.179332)
  66:      3692.74  508.098750  ( -2.136217  -2.746165  22.270921)
  67:      3865.15  104.218506  ( -1.793146   9.879075  -1.845807)
  68:      3869.19  102.937268  ( -9.169437  -1.655618  -4.014676)
  69:      3870.98  122.614279  (  4.228645  -7.293592   7.178883)
  70:      3873.57  191.616590  ( 11.294045   0.520409  -7.986884)
  71:      3879.47  146.406521  (  1.805626  10.908700  -4.913909)

The first frequency considered to be a vibration is 6
The total number of vibrations considered is 66


--------------------------
THERMOCHEMISTRY AT 298.15K
--------------------------

Temperature         ... 298.15 K
Pressure            ... 1.00 atm
Total Mass          ... 144.12 AMU

Throughout the following assumptions are being made:
  (1) The electronic state is orbitally nondegenerate
  (2) There are no thermally accessible electronically excited states
  (3) Hindered rotations indicated by low frequency modes are not
      treated as such but are treated as vibrations and this may
      cause some error
  (4) All equations used are the standard statistical mechanics
      equations for an ideal gas
  (5) All vibrations are strictly harmonic

freq.      21.03  E(vib)   ...       0.56 
freq.      23.30  E(vib)   ...       0.56 
freq.      45.54  E(vib)   ...       0.53 
freq.      52.91  E(vib)   ...       0.52 
freq.      61.51  E(vib)   ...       0.51 
freq.      63.00  E(vib)   ...       0.51 
freq.      92.69  E(vib)   ...       0.47 
freq.     148.18  E(vib)   ...       0.41 
freq.     193.42  E(vib)   ...       0.36 
freq.     202.73  E(vib)   ...       0.35 
freq.     212.75  E(vib)   ...       0.34 
freq.     222.52  E(vib)   ...       0.33 
freq.     234.94  E(vib)   ...       0.32 
freq.     241.25  E(vib)   ...       0.31 
freq.     245.34  E(vib)   ...       0.31 
freq.     253.71  E(vib)   ...       0.30 
freq.     263.78  E(vib)   ...       0.29 
freq.     268.53  E(vib)   ...       0.29 
freq.     290.94  E(vib)   ...       0.27 
freq.     310.60  E(vib)   ...       0.26 
freq.     317.37  E(vib)   ...       0.25 
freq.     340.02  E(vib)   ...       0.23 
freq.     345.62  E(vib)   ...       0.23 
freq.     383.98  E(vib)   ...       0.20 
freq.     412.99  E(vib)   ...       0.19 
freq.     451.95  E(vib)   ...       0.16 
freq.     464.20  E(vib)   ...       0.16 
freq.     528.78  E(vib)   ...       0.13 
freq.     581.26  E(vib)   ...       0.11 
freq.     618.69  E(vib)   ...       0.09 
freq.     634.63  E(vib)   ...       0.09 
freq.     655.41  E(vib)   ...       0.08 
freq.     675.90  E(vib)   ...       0.08 
freq.     740.82  E(vib)   ...       0.06 
freq.     750.07  E(vib)   ...       0.06 
freq.     801.71  E(vib)   ...       0.05 
freq.     834.64  E(vib)   ...       0.04 
freq.     886.43  E(vib)   ...       0.04 
freq.     938.20  E(vib)   ...       0.03 
freq.     963.65  E(vib)   ...       0.03 
freq.    1045.36  E(vib)   ...       0.02 
freq.    1086.99  E(vib)   ...       0.02 
freq.    1585.66  E(vib)   ...       0.00 
freq.    1611.47  E(vib)   ...       0.00 
freq.    1630.48  E(vib)   ...       0.00 
freq.    1644.56  E(vib)   ...       0.00 
freq.    1655.20  E(vib)   ...       0.00 
freq.    1665.63  E(vib)   ...       0.00 
freq.    1681.88  E(vib)   ...       0.00 
freq.    1709.07  E(vib)   ...       0.00 
freq.    3089.11  E(vib)   ...       0.00 
freq.    3149.79  E(vib)   ...       0.00 
freq.    3269.00  E(vib)   ...       0.00 
freq.    3295.85  E(vib)   ...       0.00 
freq.    3324.17  E(vib)   ...       0.00 
freq.    3420.02  E(vib)   ...       0.00 
freq.    3477.18  E(vib)   ...       0.00 
freq.    3491.90  E(vib)   ...       0.00 
freq.    3544.09  E(vib)   ...       0.00 
freq.    3563.45  E(vib)   ...       0.00 
freq.    3692.74  E(vib)   ...       0.00 
freq.    3865.15  E(vib)   ...       0.00 
freq.    3869.19  E(vib)   ...       0.00 
freq.    3870.98  E(vib)   ...       0.00 
freq.    3873.57  E(vib)   ...       0.00 
freq.    3879.47  E(vib)   ...       0.00 

------------
INNER ENERGY
------------

The inner energy is: U= E(el) + E(ZPE) + E(vib) + E(rot) + E(trans)
    E(el)   - is the total energy from the electronic structure calculation
              = E(kin-el) + E(nuc-el) + E(el-el) + E(nuc-nuc)
    E(ZPE)  - the the zero temperature vibrational energy from the frequency calculation
    E(vib)  - the the finite temperature correction to E(ZPE) due to population
              of excited vibrational states
    E(rot)  - is the rotational thermal energy
    E(trans)- is the translational thermal energy

Summary of contributions to the inner energy U:
Electronic energy                ...   -610.43398366 Eh
Zero point energy                ...      0.19994779 Eh     125.47 kcal/mol
Thermal vibrational correction   ...      0.01617747 Eh      10.15 kcal/mol
Thermal rotational correction    ...      0.00141627 Eh       0.89 kcal/mol
Thermal translational correction ...      0.00141627 Eh       0.89 kcal/mol
-----------------------------------------------------------------------
Total thermal energy                   -610.21502585 Eh


Summary of corrections to the electronic energy:
(perhaps to be used in another calculation)
Total thermal correction                  0.01901001 Eh      11.93 kcal/mol
Non-thermal (ZPE) correction              0.19994779 Eh     125.47 kcal/mol
-----------------------------------------------------------------------
Total correction                          0.21895780 Eh     137.40 kcal/mol


--------
ENTHALPY
--------

The enthalpy is H = U + kB*T
                kB is Boltzmann's constant
Total free energy                 ...   -610.21502585 Eh 
Thermal Enthalpy correction       ...      0.00094421 Eh       0.59 kcal/mol
-----------------------------------------------------------------------
Total Enthalpy                    ...   -610.21408165 Eh


Note: Only C1 symmetry has been detected, increase convergence thresholds 
      if your molecule has a higher symmetry. Symmetry factor of 1.0 is   
      used for the rotational entropy correction. 
 

Note: Rotational entropy computed according to Herzberg 
Infrared and Raman Spectra, Chapter V,1, Van Nostrand Reinhold, 1945 
Point Group:  C1, Symmetry Number:   1  
Rotational constants in cm-1:     0.036990     0.025670     0.023367 

Vibrational entropy computed according to the QRRHO of S. Grimme
Chem.Eur.J. 2012 18 9955


-------
ENTROPY
-------

The entropy contributions are T*S = T*(S(el)+S(vib)+S(rot)+S(trans))
     S(el)   - electronic entropy
     S(vib)  - vibrational entropy
     S(rot)  - rotational entropy
     S(trans)- translational entropy
The entropies will be listed as mutliplied by the temperature to get
units of energy

Electronic entropy                ...      0.00000000 Eh      0.00 kcal/mol
Vibrational entropy               ...      0.02924618 Eh     18.35 kcal/mol
Rotational entropy                ...      0.01456973 Eh      9.14 kcal/mol
Translational entropy             ...      0.01938886 Eh     12.17 kcal/mol
-----------------------------------------------------------------------
Final entropy term                ...      0.06320477 Eh     39.66 kcal/mol

In case the symmetry of your molecule has not been determined correctly
or in case you have a reason to use a different symmetry number we print 
out the resulting rotational entropy values for sn=1,12 :
 --------------------------------------------------------
|  sn= 1 | S(rot)=       0.01456973 Eh      9.14 kcal/mol|
|  sn= 2 | S(rot)=       0.01391527 Eh      8.73 kcal/mol|
|  sn= 3 | S(rot)=       0.01353244 Eh      8.49 kcal/mol|
|  sn= 4 | S(rot)=       0.01326081 Eh      8.32 kcal/mol|
|  sn= 5 | S(rot)=       0.01305013 Eh      8.19 kcal/mol|
|  sn= 6 | S(rot)=       0.01287798 Eh      8.08 kcal/mol|
|  sn= 7 | S(rot)=       0.01273244 Eh      7.99 kcal/mol|
|  sn= 8 | S(rot)=       0.01260636 Eh      7.91 kcal/mol|
|  sn= 9 | S(rot)=       0.01249515 Eh      7.84 kcal/mol|
|  sn=10 | S(rot)=       0.01239567 Eh      7.78 kcal/mol|
|  sn=11 | S(rot)=       0.01230568 Eh      7.72 kcal/mol|
|  sn=12 | S(rot)=       0.01222353 Eh      7.67 kcal/mol|
 --------------------------------------------------------


-------------------
GIBBS FREE ENERGY
-------------------

The Gibbs free energy is G = H - T*S

Total enthalpy                    ...   -610.21408165 Eh 
Total entropy correction          ...     -0.06320477 Eh    -39.66 kcal/mol
-----------------------------------------------------------------------
Final Gibbs free energy         ...   -610.27728641 Eh

For completeness - the Gibbs free energy minus the electronic energy
G-E(el)                           ...      0.15669725 Eh     98.33 kcal/mol

[1615913047.564497] [comp0813:193001:0]            sys.c:618  UCX  ERROR shmget(size=2097152 flags=0xfb0) for mm_recv_desc failed: Operation not permitted, please check shared memory limits by 'ipcs -l'
[1615913047.572176] [comp0813:193003:0]            sys.c:618  UCX  ERROR shmget(size=2097152 flags=0xfb0) for mm_recv_desc failed: Operation not permitted, please check shared memory limits by 'ipcs -l'
[1615913047.589381] [comp0813:193004:0]            sys.c:618  UCX  ERROR shmget(size=2097152 flags=0xfb0) for mm_recv_desc failed: Operation not permitted, please check shared memory limits by 'ipcs -l'
[1615913047.600557] [comp0813:193002:0]            sys.c:618  UCX  ERROR shmget(size=2097152 flags=0xfb0) for mm_recv_desc failed: Operation not permitted, please check shared memory limits by 'ipcs -l'
[1615913047.614339] [comp0813:193001:0]            sys.c:618  UCX  ERROR shmget(size=2097152 flags=0xb80) for ucp_am_bufs failed: Operation not permitted, please check shared memory limits by 'ipcs -l'
[1615913047.614929] [comp0813:193003:0]            sys.c:618  UCX  ERROR shmget(size=2097152 flags=0xb80) for ucp_am_bufs failed: Operation not permitted, please check shared memory limits by 'ipcs -l'
[1615913047.633238] [comp0813:193002:0]            sys.c:618  UCX  ERROR shmget(size=2097152 flags=0xb80) for ucp_am_bufs failed: Operation not permitted, please check shared memory limits by 'ipcs -l'

Timings for individual modules:

Sum of individual times         ...      480.535 sec (=   8.009 min)
GTO integral calculation        ...        2.493 sec (=   0.042 min)   0.5 %
SCF iterations                  ...       24.739 sec (=   0.412 min)   5.1 %
SCF Gradient evaluation         ...        6.073 sec (=   0.101 min)   1.3 %
Geometry relaxation             ...        0.755 sec (=   0.013 min)   0.2 %
Analytical frequency calculation...      446.475 sec (=   7.441 min)  92.9 %
                             ****ORCA TERMINATED NORMALLY****
TOTAL RUN TIME: 0 days 0 hours 8 minutes 2 seconds 773 msec
