
                                 *****************
                                 * O   R   C   A *
                                 *****************

           --- An Ab Initio, DFT and Semiempirical electronic structure package ---

                  #######################################################
                  #                        -***-                        #
                  #          Department of theory and spectroscopy      #
                  #               Directorship: Frank Neese             #
                  #        Max Planck Institute fuer Kohlenforschung    #
                  #                Kaiser Wilhelm Platz 1               #
                  #                 D-45470 Muelheim/Ruhr               #
                  #                      Germany                        #
                  #                                                     #
                  #                  All rights reserved                #
                  #                        -***-                        #
                  #######################################################


                         Program Version 4.2.1 -  RELEASE  -


 With contributions from (in alphabetic order):
   Daniel Aravena         : Magnetic Suceptibility
   Michael Atanasov       : Ab Initio Ligand Field Theory (pilot matlab implementation)
   Alexander A. Auer      : GIAO ZORA, VPT2
   Ute Becker             : Parallelization
   Giovanni Bistoni       : ED, misc. LED, open-shell LED, HFLD
   Martin Brehm           : Molecular dynamics
   Dmytro Bykov           : SCF Hessian
   Vijay G. Chilkuri      : MRCI spin determinant printing, contributions to CSF-ICE
   Dipayan Datta          : RHF DLPNO-CCSD density
   Achintya Kumar Dutta   : EOM-CC, STEOM-CC
   Dmitry Ganyushin       : Spin-Orbit,Spin-Spin,Magnetic field MRCI
   Miquel Garcia          : C-PCM Hessian, Gaussian charge scheme
   Yang Guo               : DLPNO-NEVPT2, CIM, IAO-localization
   Andreas Hansen         : Spin unrestricted coupled pair/coupled cluster methods
   Benjamin Helmich-Paris : CASSCF linear response (MC-RPA)
   Lee Huntington         : MR-EOM, pCC
   Robert Izsak           : Overlap fitted RIJCOSX, COSX-SCS-MP3, EOM
   Christian Kollmar      : KDIIS, OOCD, Brueckner-CCSD(T), CCSD density
   Simone Kossmann        : Meta GGA functionals, TD-DFT gradient, OOMP2, MP2 Hessian
   Martin Krupicka        : AUTO-CI
   Lucas Lang             : DCDCAS
   Dagmar Lenk            : GEPOL surface, SMD
   Dimitrios Liakos       : Extrapolation schemes; Compound Job, initial MDCI parallelization
   Dimitrios Manganas     : Further ROCIS development; embedding schemes
   Dimitrios Pantazis     : SARC Basis sets
   Taras Petrenko         : DFT Hessian,TD-DFT gradient, ASA, ECA, R-Raman, ABS, FL, XAS/XES, NRVS
   Peter Pinski           : DLPNO-MP2, DLPNO-MP2 Gradient
   Christoph Reimann      : Effective Core Potentials
   Marius Retegan         : Local ZFS, SOC
   Christoph Riplinger    : Optimizer, TS searches, QM/MM, DLPNO-CCSD(T), (RO)-DLPNO pert. Triples
   Tobias Risthaus        : Range-separated hybrids, TD-DFT gradient, RPA, STAB
   Michael Roemelt        : Original ROCIS implementation
   Masaaki Saitow         : Open-shell DLPNO-CCSD energy and density
   Barbara Sandhoefer     : DKH picture change effects
   Avijit Sen             : IP-ROCIS
   Kantharuban Sivalingam : CASSCF convergence, NEVPT2, FIC-MRCI
   Bernardo de Souza      : ESD, SOC TD-DFT
   Georgi Stoychev        : AutoAux, RI-MP2 NMR
   Willem Van den Heuvel  : Paramagnetic NMR
   Boris Wezisla          : Elementary symmetry handling
   Frank Wennmohs         : Technical directorship


 We gratefully acknowledge several colleagues who have allowed us to
 interface, adapt or use parts of their codes:
   Stefan Grimme, W. Hujo, H. Kruse,             : VdW corrections, initial TS optimization,
                  C. Bannwarth                     DFT functionals, gCP, sTDA/sTD-DF
   Ed Valeev, F. Pavosevic, A. Kumar             : LibInt (2-el integral package), F12 methods
   Garnet Chan, S. Sharma, J. Yang, R. Olivares  : DMRG
   Ulf Ekstrom                                   : XCFun DFT Library
   Mihaly Kallay                                 : mrcc  (arbitrary order and MRCC methods)
   Andreas Klamt, Michael Diedenhofen            : otool_cosmo (COSMO solvation model)
   Jiri Pittner, Ondrej Demel                    : Mk-CCSD
   Frank Weinhold                                : gennbo (NPA and NBO analysis)
   Christopher J. Cramer and Donald G. Truhlar   : smd solvation model
   Lars Goerigk                                  : TD-DFT with DH, B97 family of functionals
   V. Asgeirsson, H. Jonsson                     : NEB implementation
   FAccTs GmbH                                   : IRC, NEB, NEB-TS, Multilevel, MM, QM/MM, CI optimization
   S Lehtola, MJT Oliveira, MAL Marques          : LibXC Library


 Your calculation uses the libint2 library for the computation of 2-el integrals
 For citations please refer to: http://libint.valeyev.net

 Your ORCA version has been built with support for libXC version: 4.2.3
 For citations please refer to: https://tddft.org/programs/libxc/

 This ORCA versions uses:
   CBLAS   interface :  Fast vector & matrix operations
   LAPACKE interface :  Fast linear algebra routines
   SCALAPACK package :  Parallel linear algebra routines




***************************************
The coordinates will be read from file: septamer2.xyz
***************************************


Your calculation utilizes the atom-pairwise dispersion correction
with the Becke-Johnson damping scheme (D3BJ)
Cite in your paper:
S.Grimme, S.Ehrlich, L.Goerigk, J Comput Chem, (2011), 32, 1456–1465 
S.Grimme, J.Antony, S.Ehrlich and H.Krieg, J.Chem.Phys., 132, (2010), 154104 
   

Your calculation utilizes the SMD solvation module
Please cite in your paper:
A.V. Marenich, C.J. Cramer, D.G. Truhlar J. Phys. Chem. B, 113, (2009), 6378 

----- Orbital basis set information -----
Your calculation utilizes the basis: def2-SVP
   F. Weigend and R. Ahlrichs, Phys. Chem. Chem. Phys. 7, 3297 (2005).

================================================================================
                                        WARNINGS
                       Please study these warnings very carefully!
================================================================================


WARNING: Geometry Optimization
  ===> : Switching off AutoStart
         For restart on a previous wavefunction, please use MOREAD

INFO   : the flag for use of LIBINT has been found!

================================================================================
                                       INPUT FILE
================================================================================
NAME = septamer2.inp
|  1> ! PBE0 D3BJ def2-SVP LooseOpt Freq CPCM(water) PAL4
|  2> %geom MaxIter 500 end
|  3> %maxcore 4000
|  4> %cpcm  
|  5>     smd true
|  6>     SMDsolvent "water"
|  7> end
|  8> *xyzfile 0 1 septamer2.xyz
|  9> 
| 10>                          ****END OF INPUT****
================================================================================

                       *****************************
                       * Geometry Optimization Run *
                       *****************************

Geometry optimization settings:
Update method            Update   .... BFGS
Choice of coordinates    CoordSys .... Z-matrix Internals
Initial Hessian          InHess   .... Almoef's Model

Convergence Tolerances:
Energy Change            TolE     ....  3.0000e-05 Eh
Max. Gradient            TolMAXG  ....  2.0000e-03 Eh/bohr
RMS Gradient             TolRMSG  ....  5.0000e-04 Eh/bohr
Max. Displacement        TolMAXD  ....  1.0000e-02 bohr
RMS Displacement         TolRMSD  ....  7.0000e-03 bohr
Strict Convergence                ....  False
------------------------------------------------------------------------------
                        ORCA OPTIMIZATION COORDINATE SETUP
------------------------------------------------------------------------------

The optimization will be done in new redundant internal coordinates
Making redundant internal coordinates   ...  (new redundants) done
Evaluating the initial hessian          ...  (Almloef) done
Evaluating the coordinates              ...  done
Calculating the B-matrix                .... done
Calculating the G-matrix                .... done
Diagonalizing the G-matrix              .... done
The first mode is                       ....  146
The number of degrees of freedom        ....   57

    -----------------------------------------------------------------
                    Redundant Internal Coordinates


    -----------------------------------------------------------------
         Definition                    Initial Value    Approx d2E/dq
    -----------------------------------------------------------------
      1. B(H   1,O   0)                  0.9664         0.507954   
      2. B(H   2,O   0)                  0.9579         0.523900   
      3. B(H   4,H   2)                  2.3478         0.000679   
      4. B(H   4,H   1)                  2.5105         0.000373   
      5. B(H   4,O   3)                  0.9187         0.605091   
      6. B(H   4,O   0)                  2.0328         0.010102   
      7. B(H   5,O   3)                  0.9477         0.543915   
      8. B(O   6,H   4)                  2.4720         0.002012   
      9. B(H   7,O   6)                  0.9588         0.522234   
     10. B(H   8,H   4)                  2.6335         0.000238   
     11. B(H   8,O   6)                  0.9413         0.556991   
     12. B(H   8,O   0)                  2.6102         0.001211   
     13. B(H   8,H   2)                  2.4744         0.000426   
     14. B(H  10,O   9)                  0.9776         0.487411   
     15. B(H  11,O   9)                  0.9015         0.644497   
     16. B(H  13,O  12)                  0.9408         0.557873   
     17. B(H  14,O   0)                  1.9645         0.012981   
     18. B(H  14,O  12)                  0.9777         0.487145   
     19. B(H  14,H   2)                  2.5301         0.000348   
     20. B(H  14,H   1)                  2.3518         0.000669   
     21. B(H  16,O  15)                  1.0271         0.406404   
     22. B(H  17,O  15)                  1.0064         0.438435   
     23. B(H  17,O   3)                  1.8512         0.019684   
     24. B(O  18,O   6)                  2.8609         0.002256   
     25. B(O  18,H  10)                  2.3149         0.003584   
     26. B(H  19,H   8)                  2.9280         0.000081   
     27. B(H  19,O   6)                  2.7310         0.000777   
     28. B(H  19,O  18)                  0.9805         0.482154   
     29. B(H  19,H   4)                  1.7533         0.006030   
     30. B(H  19,O   3)                  1.7995         0.023803   
     31. B(H  19,H  10)                  2.7575         0.000151   
     32. B(H  20,O   6)                  2.3017         0.003762   
     33. B(H  20,O  18)                  0.9646         0.511168   
     34. B(H  20,H   8)                  2.8105         0.000124   
     35. B(H  20,H   7)                  2.5964         0.000272   
     36. A(H   4,O   0,H  14)          130.1824         0.130392   
     37. A(H   1,O   0,H   2)          101.6597         0.321003   
     38. A(H   1,O   0,H  14)          101.2018         0.189464   
     39. A(H   2,O   0,H   4)           96.8205         0.184587   
     40. A(H   2,O   0,H  14)          115.5642         0.190169   
     41. A(H   1,O   0,H   4)          108.3440         0.183921   
     42. A(H   4,H   1,H  14)           96.3772         0.095564   
     43. A(O   0,H   1,H  14)           55.0274         0.130541   
     44. A(O   0,H   1,H   4)           50.2258         0.125405   
     45. A(H   4,H   2,H  14)           95.9491         0.095479   
     46. A(O   0,H   2,H  14)           44.4639         0.125069   
     47. A(O   0,H   2,H   4)           59.2808         0.130969   
     48. A(H   4,O   3,H  17)          119.8768         0.203851   
     49. A(H   5,O   3,H  17)          130.5137         0.201113   
     50. A(H  17,O   3,H  19)           92.5111         0.144219   
     51. A(H   4,O   3,H  19)           72.2459         0.208898   
     52. A(H   5,O   3,H  19)          125.5520         0.206040   
     53. A(H   4,O   3,H   5)          102.7496         0.332433   
     54. A(H   1,H   4,H   2)           35.5663         0.095586   
     55. A(O   0,H   4,H   2)           23.8988         0.106171   
     56. A(H   2,H   4,O   3)          149.0032         0.132360   
     57. A(H   1,H   4,O   3)          116.8432         0.126876   
     58. A(O   0,H   4,O   3)          136.0747         0.187755   
     59. A(O   0,H   4,H   1)           21.4302         0.103999   
     60. A(H   2,H   4,H  19)          118.4505         0.101361   
     61. A(H   1,H   4,H  19)          107.8869         0.099797   
     62. A(O   0,H   4,H  19)          100.2165         0.117152   
     63. A(O   3,H   4,H  19)           77.8168         0.160089   
     64. A(H   7,O   6,H   8)          101.7721         0.325722   
     65. A(H   7,O   6,O  18)          105.9403         0.167269   
     66. A(H   8,O   6,O  18)           96.3560         0.168419   
     67. A(H  10,O   9,H  11)          111.6555         0.329879   
     68. A(O  18,H  10,H  19)           19.9424         0.098660   
     69. A(O   9,H  10,H  19)          128.4611         0.118369   
     70. A(O   9,H  10,O  18)          140.0853         0.163377   
     71. A(H  13,O  12,H  14)          107.2695         0.322108   
     72. A(H   2,H  14,O  12)          129.2015         0.124480   
     73. A(O   0,H  14,H   1)           23.7708         0.107115   
     74. A(H   1,H  14,O  12)          146.9213         0.130149   
     75. A(O   0,H  14,O  12)          149.1387         0.188517   
     76. A(H   1,H  14,H   2)           35.3490         0.095458   
     77. A(O   0,H  14,H   2)           19.9719         0.104619   
     78. A(H  16,O  15,H  17)           97.9163         0.300867   
     79. A(O   3,H  17,O  15)          169.7395         0.195774   
     80. A(H  19,O  18,H  20)           94.9489         0.317008   
     81. A(O   6,O  18,H  10)          107.3084         0.114346   
     82. A(H  10,O  18,H  20)          138.7991         0.164182   
     83. A(H  10,O  18,H  19)          106.4270         0.163194   
     84. A(O   6,O  18,H  20)           46.2393         0.166891   
     85. A(O   6,O  18,H  19)           72.4913         0.165867   
     86. A(H   4,H  19,H  10)          133.6796         0.097792   
     87. A(O   3,H  19,H  10)          153.2517         0.103829   
     88. A(H  10,H  19,O  18)           53.6306         0.118297   
     89. A(O   3,H  19,H   4)           29.9373         0.123179   
     90. A(H   4,H  19,O  18)          149.1819         0.156527   
     91. A(O   3,H  19,O  18)          153.1168         0.202890   
     92. D(H   4,H   1,O   0,H  14)   -139.3436         0.425097   
     93. D(H   4,H   1,O   0,H   2)    101.3133         0.425097   
     94. D(H  14,H   1,O   0,H   4)    139.3436         0.425097   
     95. D(H  14,H   1,O   0,H   2)   -119.3430         0.425097   
     96. D(H  14,H   2,O   0,H   1)    108.5780         0.492388   
     97. D(H   4,H   2,O   0,H  14)    141.0372         0.492388   
     98. D(H   4,H   2,O   0,H   1)   -110.3848         0.492388   
     99. D(H  14,H   2,O   0,H   4)   -141.0372         0.492388   
    100. D(H   2,H   4,H   1,O   0)    -42.3495         0.001502   
    101. D(H  19,H   4,H   1,H  14)     39.3182         0.001502   
    102. D(H   2,H   4,O   0,H   1)    104.7199         0.001587   
    103. D(O   0,H   4,H   2,H  14)     26.2856         0.001507   
    104. D(O   3,H   4,O   0,H   2)   -134.9935         0.001587   
    105. D(H  19,H   4,H   2,O   0)    -43.5441         0.001507   
    106. D(H   1,H   4,H   2,O   0)     37.4123         0.001507   
    107. D(O   3,H   4,H   1,H  14)    124.4304         0.001502   
    108. D(H  19,H   4,H   1,O   0)     71.8113         0.001502   
    109. D(H   2,H   4,O   3,H  19)   -125.9454         0.805048   
    110. D(H   2,H   4,O   3,H  17)    -43.4662         0.805048   
    111. D(H  19,H   4,O   3,H   5)   -123.6078         0.805048   
    112. D(O   3,H   4,O   0,H  14)     92.9503         0.001587   
    113. D(H   2,H   4,O   0,H  14)   -132.0563         0.001587   
    114. D(O   3,H   4,H   2,O   0)     72.2924         0.001507   
    115. D(H   2,H   4,H   1,H  14)    -74.8426         0.001502   
    116. D(O   0,H   4,H   1,H  14)    -32.4931         0.001502   
    117. D(H  19,H   4,O   3,H  17)     82.4793         0.805048   
    118. D(O   3,H   4,O   0,H   1)    -30.2736         0.001587   
    119. D(H   1,H   4,O   0,H  14)    123.2239         0.001587   
    120. D(H   2,H   4,O   3,H   5)    110.4468         0.805048   
    121. D(O   0,H   4,O   3,H  19)    -92.1441         0.805048   
    122. D(H  19,H   4,O   0,H   2)    142.0139         0.001587   
    123. D(H   1,H   4,O   0,H   2)   -104.7199         0.001587   
    124. D(H  19,H   4,O   0,H  14)      9.9576         0.001587   
    125. D(O   0,H   4,O   3,H  17)     -9.6648         0.805048   
    126. D(H   1,H   4,O   3,H   5)    132.3345         0.805048   
    127. D(H   1,H   4,O   3,H  19)   -104.0577         0.805048   
    128. D(O   3,H   4,H   1,O   0)    156.9235         0.001502   
    129. D(H   1,H   4,O   3,H  17)    -21.5784         0.805048   
    130. D(H  19,H   4,H   2,H  14)    -17.2585         0.001507   
    131. D(H  19,H   4,O   0,H   1)   -113.2662         0.001587   
    132. D(O   0,H   4,O   3,H   5)    144.2482         0.805048   
    133. D(O   3,H   4,H   2,H  14)     98.5779         0.001507   
    134. D(H   1,H   4,H   2,H  14)     63.6979         0.001507   
    135. D(H  19,H  10,O   9,H  11)   -145.4544         0.292730   
    136. D(O  18,H  10,O   9,H  11)   -168.3120         0.292730   
    137. D(H   1,H  14,H   2,H   4)    -74.1714         0.001502   
    138. D(H   1,H  14,H   2,O   0)    -41.2486         0.001502   
    139. D(O   0,H  14,H   2,H   4)    -32.9228         0.001502   
    140. D(O  12,H  14,H   2,O   0)   -177.2279         0.001502   
    141. D(H   2,H  14,H   1,H   4)     64.2214         0.001505   
    142. D(H   2,H  14,H   1,O   0)     33.9658         0.001505   
    143. D(H   2,H  14,O   0,H   4)    125.1907         0.001623   
    144. D(O  12,H  14,O   0,H   2)      4.1900         0.001623   
    145. D(H   1,H  14,O   0,H   2)    108.8513         0.001623   
    146. D(O  12,H  14,O   0,H   4)    129.3806         0.001623   
    147. D(H   1,H  14,O   0,H   4)   -125.9580         0.001623   
    148. D(O  12,H  14,O   0,H   1)   -104.6614         0.001623   
    149. D(O  12,H  14,H   2,H   4)    149.8494         0.001502   
    150. D(H   2,H  14,O   0,H   1)   -108.8513         0.001623   
    151. D(O  12,H  14,H   1,O   0)    114.5985         0.001505   
    152. D(O   0,H  14,H   1,H   4)     30.2556         0.001505   
    153. D(O   0,H  14,O  12,H  13)     33.8000         0.324169   
    154. D(O  12,H  14,H   1,H   4)    144.8541         0.001505   
    155. D(H   2,H  14,O  12,H  13)     35.6455         0.324169   
    156. D(H   1,H  14,O  12,H  13)    -11.8002         0.324169   
    157. D(O   3,H  17,O  15,H  16)    -65.3174         0.196975   
    158. D(O  15,H  17,O   3,H  19)     73.3646         0.001727   
    159. D(O  15,H  17,O   3,H   5)   -143.2168         0.001727   
    160. D(O  15,H  17,O   3,H   4)      2.4401         0.001727   
    161. D(O   6,O  18,H  10,H  19)     76.3109         0.001508   
    162. D(H  20,O  18,H  10,H  19)    118.2492         0.001508   
    163. D(H  20,O  18,H  10,O   9)   -178.6536         0.001508   
    164. D(H  19,O  18,H  10,O   9)     63.0972         0.001508   
    165. D(H  10,O  18,O   6,H   8)    -22.3334         0.001501   
    166. D(H  10,O  18,O   6,H   7)     81.8664         0.001501   
    167. D(H  20,O  18,O   6,H   8)   -164.7772         0.001501   
    168. D(H  20,O  18,O   6,H   7)    -60.5774         0.001501   
    169. D(O   6,O  18,H  10,O   9)    139.4080         0.001508   
    170. D(H  19,O  18,O   6,H   8)     79.9231         0.001501   
    171. D(H  19,O  18,O   6,H   7)   -175.8770         0.001501   
    172. D(H  10,H  19,O  18,O   6)   -103.4287         0.421918   
    173. D(H   4,H  19,O  18,H  10)    116.0820         0.421918   
    174. D(H   4,H  19,O  18,O   6)     12.6533         0.421918   
    175. D(H   4,H  19,O  18,H  20)    -28.2971         0.421918   
    176. D(O   3,H  19,O  18,O   6)     76.9190         0.421918   
    177. D(O   3,H  19,O  18,H  20)     35.9687         0.421918   
    178. D(H   4,H  19,H  10,O  18)   -140.4873         0.001500   
    179. D(O   3,H  19,H  10,O  18)    179.6506         0.001500   
    180. D(O   3,H  19,H  10,O   9)     46.6005         0.001500   
    181. D(O  18,H  19,H  10,O   9)   -133.0502         0.001500   
    182. D(H  10,H  19,H   4,H   2)      7.0056         0.002083   
    183. D(H  10,H  19,H   4,H   1)    -30.1218         0.002083   
    184. D(H  10,H  19,H   4,O   0)     -9.4690         0.002083   
    185. D(H  10,H  19,H   4,O   3)   -144.6876         0.002083   
    186. D(O   3,H  19,H   4,H   2)    151.6932         0.002083   
    187. D(O   3,H  19,H   4,H   1)    114.5658         0.002083   
    188. D(O   3,H  19,H   4,O   0)    135.2186         0.002083   
    189. D(O  18,H  19,H   4,H   2)    -83.0128         0.002083   
    190. D(O  18,H  19,H   4,H   1)   -120.1402         0.002083   
    191. D(O  18,H  19,H   4,O   0)    -99.4873         0.002083   
    192. D(O  18,H  19,H   4,O   3)    125.2940         0.002083   
    193. D(H   4,H  19,H  10,O   9)     86.4625         0.001500   
    194. D(H  10,H  19,O   3,H  17)    -52.3773         0.001950   
    195. D(H  10,H  19,O   3,H   5)    161.4640         0.001950   
    196. D(H  10,H  19,O   3,H   4)     68.2538         0.001950   
    197. D(O   3,H  19,O  18,H  10)   -179.6523         0.421918   
    198. D(H   4,H  19,O   3,H  17)   -120.6311         0.001950   
    199. D(H   4,H  19,O   3,H   5)     93.2102         0.001950   
    200. D(O  18,H  19,O   3,H  17)    127.0006         0.001950   
    201. D(H  10,H  19,O  18,H  20)   -144.3791         0.421918   
    202. D(O  18,H  19,O   3,H   5)    -19.1582         0.001950   
    203. D(O  18,H  19,O   3,H   4)   -112.3683         0.001950   
    -----------------------------------------------------------------

Number of atoms                         .... 21
Number of degrees of freedom            .... 203

         *************************************************************
         *                GEOMETRY OPTIMIZATION CYCLE   1            *
         *************************************************************
---------------------------------
CARTESIAN COORDINATES (ANGSTROEM)
---------------------------------
  O      7.274630    4.418810    3.839960
  H      7.890590    4.728740    4.517000
  H      7.792430    3.742020    3.402360
  O      7.416010    6.660260    2.220580
  H      7.281350    5.755740    2.308690
  H      7.864370    6.724860    1.388110
  O      6.002810    4.093200    1.000200
  H      5.353680    3.685870    0.423980
  H      5.944080    3.552280    1.768280
  O      3.197130    5.915310    4.820910
  H      3.436910    5.652450    3.910360
  H      2.779870    5.248110    5.260830
  O      5.294200    3.014400    5.329440
  H      5.918050    2.334220    5.512050
  H      5.788230    3.766150    4.946310
  O      7.560020    8.154440    4.639890
  H      6.603100    7.933690    4.940640
  H      7.520840    7.728220    3.729020
  O      4.720710    6.387700    2.129930
  H      5.650970    6.387060    2.439910
  H      4.933240    6.118480    1.228330

----------------------------
CARTESIAN COORDINATES (A.U.)
----------------------------
  NO LB      ZA    FRAG     MASS         X           Y           Z
   0 O     8.0000    0    15.999   13.747058    8.350341    7.256473
   1 H     1.0000    0     1.008   14.911054    8.936024    8.535893
   2 H     1.0000    0     1.008   14.725559    7.071393    6.429529
   3 O     8.0000    0    15.999   14.014228   12.586067    4.196288
   4 H     1.0000    0     1.008   13.759757   10.876772    4.362792
   5 H     1.0000    0     1.008   14.861506   12.708144    2.623148
   6 O     8.0000    0    15.999   11.343667    7.735027    1.890104
   7 H     1.0000    0     1.008   10.116989    6.965285    0.801206
   8 H     1.0000    0     1.008   11.232683    6.712836    3.341565
   9 O     8.0000    0    15.999    6.041700   11.178316    9.110200
  10 H     1.0000    0     1.008    6.494819   10.681582    7.389509
  11 H     1.0000    0     1.008    5.253193    9.917491    9.941528
  12 O     8.0000    0    15.999   10.004588    5.696390   10.071182
  13 H     1.0000    0     1.008   11.183494    4.411037   10.416265
  14 H     1.0000    0     1.008   10.938170    7.116992    9.347171
  15 O     8.0000    0    15.999   14.286367   15.409658    8.768121
  16 H     1.0000    0     1.008   12.478051   14.992501    9.336457
  17 H     1.0000    0     1.008   14.212328   14.604219    7.046827
  18 O     8.0000    0    15.999    8.920849   12.071004    4.024984
  19 H     1.0000    0     1.008   10.678786   12.069794    4.610762
  20 H     1.0000    0     1.008    9.322473   11.562252    2.321207

--------------------------------
INTERNAL COORDINATES (ANGSTROEM)
--------------------------------
 O      0   0   0     0.000000000000     0.00000000     0.00000000
 H      1   0   0     0.966357329408     0.00000000     0.00000000
 H      1   2   0     0.957943267683   101.65972749     0.00000000
 O      1   2   3     2.768840549996    96.75246784   251.97620063
 H      4   1   2     0.918723635322    30.61755150   151.19342372
 H      4   1   2     0.947737384775   126.37454775   106.13931923
 O      5   4   1     2.472013321829   133.40817393   153.15130846
 H      7   5   4     0.958810186742   162.55050143   333.94806396
 H      7   5   4     0.941270707979    89.24561913   204.26524605
 O      1   2   3     4.452839700966   108.75645754   165.55256381
 H     10   1   2     0.977594563457    58.65727599   157.97838408
 H     10   1   2     0.901549418501   106.41495694   263.70312258
 O      1   2   3     2.848336550234   103.58855722   109.24952271
 H     13   1   2     0.940840085774    89.82370308   289.59901384
 H     13   1   2     0.977743473668    20.71956434    77.51107019
 O      4   1   2     2.847169406375    86.01182407   322.66733155
 H     16   4   1     1.027072057550    95.10024030   292.89989286
 H     16   4   1     1.006420745861     6.65055980   177.52902870
 O     11  10   1     2.314879259789   140.08529091   288.24482292
 H     19  11  10     0.980546621839   106.42704125    63.09717033
 H     19  11  10     0.964640331574   138.79905423   181.34636401

---------------------------
INTERNAL COORDINATES (A.U.)
---------------------------
 O      0   0   0     0.000000000000     0.00000000     0.00000000
 H      1   0   0     1.826150700088     0.00000000     0.00000000
 H      1   2   0     1.810250427755   101.65972749     0.00000000
 O      1   2   3     5.232350347988    96.75246784   251.97620063
 H      4   1   2     1.736136063520    30.61755150   151.19342372
 H      4   1   2     1.790964104103   126.37454775   106.13931923
 O      5   4   1     4.671428177662   133.40817393   153.15130846
 H      7   5   4     1.811888667356   162.55050143   333.94806396
 H      7   5   4     1.778743855963    89.24561913   204.26524605
 O      1   2   3     8.414647553078   108.75645754   165.55256381
 H     10   1   2     1.847385994943    58.65727599   157.97838408
 H     10   1   2     1.703681497163   106.41495694   263.70312258
 O      1   2   3     5.382576017181   103.58855722   109.24952271
 H     13   1   2     1.777930097929    89.82370308   289.59901384
 H     13   1   2     1.847667394461    20.71956434    77.51107019
 O      4   1   2     5.380370434929    86.01182407   322.66733155
 H     16   4   1     1.940884908573    95.10024030   292.89989286
 H     16   4   1     1.901859585175     6.65055980   177.52902870
 O     11  10   1     4.374487834095   140.08529091   288.24482292
 H     19  11  10     1.852964576817   106.42704125    63.09717033
 H     19  11  10     1.822906044411   138.79905423   181.34636401

---------------------
BASIS SET INFORMATION
---------------------
There are 2 groups of distinct atoms

 Group   1 Type O   : 7s4p1d contracted to 3s2p1d pattern {511/31/1}
 Group   2 Type H   : 4s1p contracted to 2s1p pattern {31/1}

Atom   0O    basis set group =>   1
Atom   1H    basis set group =>   2
Atom   2H    basis set group =>   2
Atom   3O    basis set group =>   1
Atom   4H    basis set group =>   2
Atom   5H    basis set group =>   2
Atom   6O    basis set group =>   1
Atom   7H    basis set group =>   2
Atom   8H    basis set group =>   2
Atom   9O    basis set group =>   1
Atom  10H    basis set group =>   2
Atom  11H    basis set group =>   2
Atom  12O    basis set group =>   1
Atom  13H    basis set group =>   2
Atom  14H    basis set group =>   2
Atom  15O    basis set group =>   1
Atom  16H    basis set group =>   2
Atom  17H    basis set group =>   2
Atom  18O    basis set group =>   1
Atom  19H    basis set group =>   2
Atom  20H    basis set group =>   2
[1615912805.631749] [comp0813:188835:0]            sys.c:618  UCX  ERROR shmget(size=2097152 flags=0xfb0) for mm_recv_desc failed: Operation not permitted, please check shared memory limits by 'ipcs -l'
[1615912805.643104] [comp0813:188836:0]            sys.c:618  UCX  ERROR shmget(size=2097152 flags=0xfb0) for mm_recv_desc failed: Operation not permitted, please check shared memory limits by 'ipcs -l'
[1615912805.645015] [comp0813:188837:0]            sys.c:618  UCX  ERROR shmget(size=2097152 flags=0xfb0) for mm_recv_desc failed: Operation not permitted, please check shared memory limits by 'ipcs -l'
[1615912805.645522] [comp0813:188838:0]            sys.c:618  UCX  ERROR shmget(size=2097152 flags=0xfb0) for mm_recv_desc failed: Operation not permitted, please check shared memory limits by 'ipcs -l'
[1615912805.677529] [comp0813:188835:0]            sys.c:618  UCX  ERROR shmget(size=2097152 flags=0xb80) for ucp_am_bufs failed: Operation not permitted, please check shared memory limits by 'ipcs -l'
[1615912805.678373] [comp0813:188836:0]            sys.c:618  UCX  ERROR shmget(size=2097152 flags=0xb80) for ucp_am_bufs failed: Operation not permitted, please check shared memory limits by 'ipcs -l'
[1615912805.678435] [comp0813:188838:0]            sys.c:618  UCX  ERROR shmget(size=2097152 flags=0xb80) for ucp_am_bufs failed: Operation not permitted, please check shared memory limits by 'ipcs -l'
[1615912805.679027] [comp0813:188837:0]            sys.c:618  UCX  ERROR shmget(size=2097152 flags=0xb80) for ucp_am_bufs failed: Operation not permitted, please check shared memory limits by 'ipcs -l'


           ************************************************************
           *        Program running with 4 parallel MPI-processes     *
           *              working on a common directory               *
           ************************************************************
------------------------------------------------------------------------------
                           ORCA GTO INTEGRAL CALCULATION
------------------------------------------------------------------------------

                         BASIS SET STATISTICS AND STARTUP INFO

 # of primitive gaussian shells          ...  154
 # of primitive gaussian functions       ...  266
 # of contracted shells                  ...   84
 # of contracted basis functions         ...  168
 Highest angular momentum                ...    2
 Maximum contraction depth               ...    5
 Integral package used                   ... LIBINT
 Integral threshhold            Thresh   ...  2.500e-11
 Primitive cut-off              TCut     ...  2.500e-12


------------------------------ INTEGRAL EVALUATION ----------------------------


 * One electron integrals 
 Pre-screening matrix                    ... done
 Shell pair data                         ... done (   0.001 sec)

[1615912806.991366] [comp0813:188876:0]            sys.c:618  UCX  ERROR shmget(size=2097152 flags=0xfb0) for mm_recv_desc failed: Operation not permitted, please check shared memory limits by 'ipcs -l'
[1615912806.995840] [comp0813:188874:0]            sys.c:618  UCX  ERROR shmget(size=2097152 flags=0xfb0) for mm_recv_desc failed: Operation not permitted, please check shared memory limits by 'ipcs -l'
[1615912807.017557] [comp0813:188875:0]            sys.c:618  UCX  ERROR shmget(size=2097152 flags=0xfb0) for mm_recv_desc failed: Operation not permitted, please check shared memory limits by 'ipcs -l'
[1615912807.021556] [comp0813:188877:0]            sys.c:618  UCX  ERROR shmget(size=2097152 flags=0xfb0) for mm_recv_desc failed: Operation not permitted, please check shared memory limits by 'ipcs -l'
[1615912807.039512] [comp0813:188876:0]            sys.c:618  UCX  ERROR shmget(size=2097152 flags=0xb80) for ucp_am_bufs failed: Operation not permitted, please check shared memory limits by 'ipcs -l'
[1615912807.039566] [comp0813:188874:0]            sys.c:618  UCX  ERROR shmget(size=2097152 flags=0xb80) for ucp_am_bufs failed: Operation not permitted, please check shared memory limits by 'ipcs -l'


           ************************************************************
           *        Program running with 4 parallel MPI-processes     *
           *              working on a common directory               *
           ************************************************************
[1615912807.042938] [comp0813:188875:0]            sys.c:618  UCX  ERROR shmget(size=2097152 flags=0xb80) for ucp_am_bufs failed: Operation not permitted, please check shared memory limits by 'ipcs -l'
[1615912807.043616] [comp0813:188877:0]            sys.c:618  UCX  ERROR shmget(size=2097152 flags=0xb80) for ucp_am_bufs failed: Operation not permitted, please check shared memory limits by 'ipcs -l'
-------------------------------------------------------------------------------
                                 ORCA SCF
-------------------------------------------------------------------------------

------------
SCF SETTINGS
------------
Hamiltonian:
 Density Functional     Method          .... DFT(GTOs)
 Exchange Functional    Exchange        .... PBE
   PBE kappa parameter   XKappa         ....  0.804000
   PBE mue parameter    XMuePBE         ....  0.219520
 Correlation Functional Correlation     .... PBE
   PBE beta parameter  CBetaPBE         ....  0.066725
 LDA part of GGA corr.  LDAOpt          .... PW91-LDA
 Gradients option       PostSCFGGA      .... off
 Hybrid DFT is turned on
   Fraction HF Exchange ScalHFX         ....  0.250000
   Scaling of DF-GGA-X  ScalDFX         ....  0.750000
   Scaling of DF-GGA-C  ScalDFC         ....  1.000000
   Scaling of DF-LDA-C  ScalLDAC        ....  1.000000
   Perturbative correction              ....  0.000000
   Density functional embedding theory  .... OFF
   NL short-range parameter             ....  6.900000


General Settings:
 Integral files         IntName         .... septamer2
 Hartree-Fock type      HFTyp           .... RHF
 Total Charge           Charge          ....    0
 Multiplicity           Mult            ....    1
 Number of Electrons    NEL             ....   70
 Basis Dimension        Dim             ....  168
 Nuclear Repulsion      ENuc            ....    361.5696138972 Eh

Convergence Acceleration:
 DIIS                   CNVDIIS         .... on
   Start iteration      DIISMaxIt       ....    12
   Startup error        DIISStart       ....  0.200000
   # of expansion vecs  DIISMaxEq       ....     5
   Bias factor          DIISBfac        ....   1.050
   Max. coefficient     DIISMaxC        ....  10.000
 Newton-Raphson         CNVNR           .... off
 SOSCF                  CNVSOSCF        .... on
   Start iteration      SOSCFMaxIt      ....   150
   Startup grad/error   SOSCFStart      ....  0.003300
 Level Shifting         CNVShift        .... on
   Level shift para.    LevelShift      ....    0.2500
   Turn off err/grad.   ShiftErr        ....    0.0010
 Zerner damping         CNVZerner       .... off
 Static damping         CNVDamp         .... on
   Fraction old density DampFac         ....    0.7000
   Max. Damping (<1)    DampMax         ....    0.9800
   Min. Damping (>=0)   DampMin         ....    0.0000
   Turn off err/grad.   DampErr         ....    0.1000
 Fernandez-Rico         CNVRico         .... off

SCF Procedure:
 Maximum # iterations   MaxIter         ....   125
 SCF integral mode      SCFMode         .... Direct
   Integral package                     .... LIBINT
 Reset frequency        DirectResetFreq ....    20
 Integral Threshold     Thresh          ....  2.500e-11 Eh
 Primitive CutOff       TCut            ....  2.500e-12 Eh

Convergence Tolerance:
 Convergence Check Mode ConvCheckMode   .... Total+1el-Energy
 Convergence forced     ConvForced      .... 0
 Energy Change          TolE            ....  1.000e-08 Eh
 1-El. energy change                    ....  1.000e-05 Eh
 Orbital Gradient       TolG            ....  1.000e-05
 Orbital Rotation angle TolX            ....  1.000e-05
 DIIS Error             TolErr          ....  5.000e-07


Diagonalization of the overlap matrix:
Smallest eigenvalue                        ... 2.078e-02
Time for diagonalization                   ...    0.008 sec
Threshold for overlap eigenvalues          ... 1.000e-08
Number of eigenvalues below threshold      ... 0
Time for construction of square roots      ...    0.003 sec
Total time needed                          ...    0.011 sec

-------------------
DFT GRID GENERATION
-------------------

General Integration Accuracy     IntAcc      ...  4.340
Radial Grid Type                 RadialGrid  ... Gauss-Chebyshev
Angular Grid (max. acc.)         AngularGrid ... Lebedev-110
Angular grid pruning method      GridPruning ... 3 (G Style)
Weight generation scheme         WeightScheme... Becke
Basis function cutoff            BFCut       ...    1.0000e-11
Integration weight cutoff        WCut        ...    1.0000e-14
Grids for H and He will be reduced by one unit

# of grid points (after initial pruning)     ...  23128 (   0.0 sec)
# of grid points (after weights+screening)   ...  21678 (   0.0 sec)
nearest neighbour list constructed           ...    0.0 sec
Grid point re-assignment to atoms done       ...    0.0 sec
Grid point division into batches done        ...    0.0 sec
Reduced shell lists constructed in    0.1 sec

Total number of grid points                  ...    21678
Total number of batches                      ...      350
Average number of points per batch           ...       61
Average number of grid points per atom       ...     1032
Average number of shells per batch           ...    54.47 (64.85%)
Average number of basis functions per batch  ...    99.21 (59.06%)
Average number of large shells per batch     ...    38.47 (70.63%)
Average number of large basis fcns per batch ...    66.70 (67.23%)
Maximum spatial batch extension              ...  16.39, 16.41, 16.41 au
Average spatial batch extension              ...   0.85,  0.78,  0.85 au

Time for grid setup =    0.131 sec

------------------------------
INITIAL GUESS: MODEL POTENTIAL
------------------------------
Loading Hartree-Fock densities                     ... done
Calculating cut-offs                               ... done
Setting up the integral package                    ... done
Initializing the effective Hamiltonian             ... done
Starting the Coulomb interaction                   ... done (   0.0 sec)
Reading the grid                                   ... done
Mapping shells                                     ... done
Starting the XC term evaluation                    ... done (   0.0 sec)
  promolecular density results
     # of electrons  =     69.986917630
     EX              =    -61.169666937
     EC              =     -2.251174208
     EX+EC           =    -63.420841144
Transforming the Hamiltonian                       ... done (   0.0 sec)
Diagonalizing the Hamiltonian                      ... done (   0.0 sec)
Back transforming the eigenvectors                 ... done (   0.0 sec)
Now organizing SCF variables                       ... done
                      ------------------
                      INITIAL GUESS DONE (   0.3 sec)
                      ------------------

--------------------
CPCM SOLVATION MODEL
--------------------
CPCM parameters:
  Epsilon                                         ...      78.3550
  Refrac                                          ...       1.3300
  Rsolv                                           ...       1.3000
  Surface type                                    ...    GEPOL SES
  Epsilon function type                           ...         CPCM
Solvent:                                     ... WATER
SMD-CDS solvent descriptors:
  Soln                                       ...    1.3328
  Soln25                                     ...    1.3323
  Sola                                       ...    0.0000
  Solb                                       ...    0.0000
  Solg                                       ...    0.0000
  Solc                                       ...    0.0000
  Solh                                       ...    0.0000
Radii:
 Radius for O  used is    2.8724 Bohr (=   1.5200 Ang.)
 Radius for H  used is    2.2677 Bohr (=   1.2000 Ang.)
Calculating surface                               ...        done! (  0.2s)
GEPOL surface points                              ...         1675
GEPOL Volume                                      ...    1034.8812
GEPOL Surface-area                                ...     677.9161
Calculating surface distance matrix               ...        done! (  0.0s)
Performing Cholesky decomposition & store         ...        done! (  0.1s)
Overall time for CPCM initialization              ...                 0.3s
--------------
SCF ITERATIONS
--------------
ITER       Energy         Delta-E        Max-DP      RMS-DP      [F,P]     Damp
               ***  Starting incremental Fock matrix formation  ***
  0   -533.5554307997   0.000000000000 0.08231286  0.00300269  0.2911450 0.7000
  1   -533.7921555225  -0.236724722846 0.04757645  0.00173507  0.1331163 0.7000
                               ***Turning on DIIS***
  2   -533.8790277130  -0.086872190488 0.06016903  0.00215814  0.0422836 0.0000
  3   -534.0196019840  -0.140574271040 0.02922374  0.00112012  0.0707246 0.0000
  4   -534.0485478538  -0.028945869817 0.00560950  0.00022766  0.0126920 0.0000
                      *** Initiating the SOSCF procedure ***
                           *** Shutting down DIIS ***
                      *** Re-Reading the Fockian *** 
                      *** Removing any level shift *** 
ITER      Energy       Delta-E        Grad      Rot      Max-DP    RMS-DP
  5   -534.04948239  -0.0009345383  0.000649  0.000649  0.001712  0.000068
               *** Restarting incremental Fock matrix formation ***
  6   -534.04952716  -0.0000447700  0.000326  0.000504  0.001719  0.000049
  7   -534.04952721  -0.0000000516  0.000396  0.000229  0.001002  0.000021
  8   -534.04953465  -0.0000074348  0.000021  0.000029  0.000079  0.000003
  9   -534.04953464   0.0000000086  0.000030  0.000013  0.000049  0.000001
                  ***Gradient check signals convergence***
              ***Rediagonalizing the Fockian in SOSCF/NRSCF***

               *****************************************************
               *                     SUCCESS                       *
               *           SCF CONVERGED AFTER  10 CYCLES          *
               *****************************************************

Setting up the final grid:

General Integration Accuracy     IntAcc      ...  4.670
Radial Grid Type                 RadialGrid  ... Gauss-Chebyshev
Angular Grid (max. acc.)         AngularGrid ... Lebedev-302
Angular grid pruning method      GridPruning ... 3 (G Style)
Weight generation scheme         WeightScheme... Becke
Basis function cutoff            BFCut       ...    1.0000e-11
Integration weight cutoff        WCut        ...    1.0000e-14
Grids for H and He will be reduced by one unit

# of grid points (after initial pruning)     ...  91000 (   0.0 sec)
# of grid points (after weights+screening)   ...  83950 (   0.1 sec)
nearest neighbour list constructed           ...    0.0 sec
Grid point re-assignment to atoms done       ...    0.0 sec
Grid point division into batches done        ...    0.3 sec
Reduced shell lists constructed in    0.5 sec

Total number of grid points                  ...    83950
Total number of batches                      ...     1321
Average number of points per batch           ...       63
Average number of grid points per atom       ...     3998
Average number of shells per batch           ...    49.77 (59.25%)
Average number of basis functions per batch  ...    88.91 (52.92%)
Average number of large shells per batch     ...    34.27 (68.86%)
Average number of large basis fcns per batch ...    58.39 (65.67%)
Maximum spatial batch extension              ...  15.35, 12.85, 13.06 au
Average spatial batch extension              ...   0.53,  0.52,  0.53 au

Final grid set up in    0.6 sec
Final integration                            ... done (   0.2 sec)
Change in XC energy                          ...     0.001205707
Integrated number of electrons               ...    69.999996768
Previous integrated no of electrons          ...    70.004041404

SMD CDS free energy correction energy :                 6.93231     Kcal/mol
Total Energy after SMD CDS correction =              -534.037281625 Eh

----------------
TOTAL SCF ENERGY
----------------

Total Energy       :         -534.03728162 Eh          -14531.89322 eV

Components:
Nuclear Repulsion  :          361.56961390 Eh            9838.80939 eV
Electronic Energy  :         -895.60689552 Eh          -24370.70261 eV
One Electron Energy:        -1455.85566331 Eh          -39615.84663 eV
Two Electron Energy:          560.24876779 Eh           15245.14402 eV
CPCM Dielectric    :           -0.08099702 Eh              -2.20404 eV
SMD CDS (Gcds)     :            0.01104734 Eh               0.30061 eV

Virial components:
Potential Energy   :        -1064.49747748 Eh          -28966.44899 eV
Kinetic Energy     :          530.46019585 Eh           14434.55577 eV
Virial Ratio       :            2.00674336


DFT components:
N(Alpha)           :       34.999998384081 electrons
N(Beta)            :       34.999998384081 electrons
N(Total)           :       69.999996768162 electrons
E(X)               :      -46.920595462068 Eh       
E(C)               :       -2.336545572933 Eh       
E(XC)              :      -49.257141035000 Eh       
DFET-embed. en.    :        0.000000000000 Eh       
CPCM Solvation Model Properties:
Surface-charge          :           -0.02677242
Charge-correction       :           -0.00004041 Eh              -0.00110 eV
Free-energy (cav+disp)  :            0.00415139 Eh               0.11297 eV
Corrected G(solv)       :         -534.03317065 Eh          -14531.78135 eV

---------------
SCF CONVERGENCE
---------------

  Last Energy change         ...   -2.8311e-08  Tolerance :   1.0000e-08
  Last MAX-Density change    ...    2.0316e-06  Tolerance :   1.0000e-07
  Last RMS-Density change    ...    6.2000e-08  Tolerance :   5.0000e-09
  Last Orbital Gradient      ...    6.3296e-07  Tolerance :   1.0000e-05
  Last Orbital Rotation      ...    1.4283e-06  Tolerance :   1.0000e-05

             **** THE GBW FILE WAS UPDATED (septamer2.gbw) ****
             **** DENSITY FILE WAS UPDATED (septamer2.scfp) ****
             **** ENERGY FILE WAS UPDATED (septamer2.en.tmp) ****
             **** THE GBW FILE WAS UPDATED (septamer2.gbw) ****
             **** DENSITY FILE WAS UPDATED (septamer2.scfp) ****
----------------
ORBITAL ENERGIES
----------------

  NO   OCC          E(Eh)            E(eV) 
   0   2.0000     -19.219363      -522.9855 
   1   2.0000     -19.216475      -522.9069 
   2   2.0000     -19.198722      -522.4238 
   3   2.0000     -19.191323      -522.2225 
   4   2.0000     -19.186290      -522.0855 
   5   2.0000     -19.183132      -521.9995 
   6   2.0000     -19.181029      -521.9423 
   7   2.0000      -1.050369       -28.5820 
   8   2.0000      -1.029341       -28.0098 
   9   2.0000      -1.018036       -27.7022 
  10   2.0000      -1.006906       -27.3993 
  11   2.0000      -0.996572       -27.1181 
  12   2.0000      -0.995082       -27.0776 
  13   2.0000      -0.978772       -26.6337 
  14   2.0000      -0.565063       -15.3761 
  15   2.0000      -0.543978       -14.8024 
  16   2.0000      -0.543216       -14.7817 
  17   2.0000      -0.528277       -14.3751 
  18   2.0000      -0.523860       -14.2549 
  19   2.0000      -0.500315       -13.6143 
  20   2.0000      -0.493709       -13.4345 
  21   2.0000      -0.431011       -11.7284 
  22   2.0000      -0.418661       -11.3923 
  23   2.0000      -0.415673       -11.3110 
  24   2.0000      -0.395677       -10.7669 
  25   2.0000      -0.381991       -10.3945 
  26   2.0000      -0.378438       -10.2978 
  27   2.0000      -0.374192       -10.1823 
  28   2.0000      -0.340816        -9.2741 
  29   2.0000      -0.327108        -8.9011 
  30   2.0000      -0.323903        -8.8138 
  31   2.0000      -0.309761        -8.4290 
  32   2.0000      -0.304818        -8.2945 
  33   2.0000      -0.303239        -8.2516 
  34   2.0000      -0.297584        -8.0977 
  35   0.0000       0.036490         0.9929 
  36   0.0000       0.083728         2.2783 
  37   0.0000       0.092011         2.5038 
  38   0.0000       0.095232         2.5914 
  39   0.0000       0.120053         3.2668 
  40   0.0000       0.138851         3.7783 
  41   0.0000       0.155288         4.2256 
  42   0.0000       0.163925         4.4606 
  43   0.0000       0.179223         4.8769 
  44   0.0000       0.204689         5.5699 
  45   0.0000       0.218590         5.9481 
  46   0.0000       0.225706         6.1418 
  47   0.0000       0.243134         6.6160 
  48   0.0000       0.261420         7.1136 
  49   0.0000       0.520847        14.1730 
  50   0.0000       0.533017        14.5041 
  51   0.0000       0.563138        15.3238 
  52   0.0000       0.571974        15.5642 
  53   0.0000       0.603346        16.4179 
  54   0.0000       0.637199        17.3391 
  55   0.0000       0.641722        17.4621 
  56   0.0000       0.651439        17.7266 
  57   0.0000       0.664783        18.0897 
  58   0.0000       0.674566        18.3559 
  59   0.0000       0.688701        18.7405 
  60   0.0000       0.696084        18.9414 
  61   0.0000       0.723456        19.6862 
  62   0.0000       0.744025        20.2459 
  63   0.0000       0.852230        23.1904 
  64   0.0000       0.885626        24.0991 
  65   0.0000       0.903075        24.5739 
  66   0.0000       0.907325        24.6896 
  67   0.0000       0.930109        25.3095 
  68   0.0000       0.943027        25.6611 
  69   0.0000       0.951412        25.8892 
  70   0.0000       0.956308        26.0225 
  71   0.0000       0.966959        26.3123 
  72   0.0000       0.974600        26.5202 
  73   0.0000       0.990088        26.9417 
  74   0.0000       1.005036        27.3484 
  75   0.0000       1.023757        27.8579 
  76   0.0000       1.030487        28.0410 
  77   0.0000       1.039017        28.2731 
  78   0.0000       1.050292        28.5799 
  79   0.0000       1.063480        28.9388 
  80   0.0000       1.092359        29.7246 
  81   0.0000       1.101820        29.9820 
  82   0.0000       1.119713        30.4689 
  83   0.0000       1.144735        31.1498 
  84   0.0000       1.156790        31.4779 
  85   0.0000       1.175336        31.9825 
  86   0.0000       1.182920        32.1889 
  87   0.0000       1.235221        33.6121 
  88   0.0000       1.267268        34.4841 
  89   0.0000       1.273908        34.6648 
  90   0.0000       1.289577        35.0912 
  91   0.0000       1.314199        35.7612 
  92   0.0000       1.360680        37.0260 
  93   0.0000       1.369654        37.2702 
  94   0.0000       1.378419        37.5087 
  95   0.0000       1.383652        37.6511 
  96   0.0000       1.392621        37.8951 
  97   0.0000       1.417290        38.5664 
  98   0.0000       1.428299        38.8660 
  99   0.0000       1.447651        39.3926 
 100   0.0000       1.465271        39.8720 
 101   0.0000       1.489296        40.5258 
 102   0.0000       1.500529        40.8315 
 103   0.0000       1.516343        41.2618 
 104   0.0000       1.538907        41.8758 
 105   0.0000       1.557033        42.3690 
 106   0.0000       1.579898        42.9912 
 107   0.0000       1.609225        43.7893 
 108   0.0000       1.616173        43.9783 
 109   0.0000       1.645400        44.7736 
 110   0.0000       1.685170        45.8558 
 111   0.0000       1.714597        46.6565 
 112   0.0000       1.807407        49.1821 
 113   0.0000       1.821126        49.5554 
 114   0.0000       1.830320        49.8056 
 115   0.0000       1.869617        50.8749 
 116   0.0000       1.875676        51.0397 
 117   0.0000       1.935314        52.6626 
 118   0.0000       1.972706        53.6801 
 119   0.0000       2.140518        58.2464 
 120   0.0000       2.235234        60.8238 
 121   0.0000       2.254207        61.3401 
 122   0.0000       2.261267        61.5322 
 123   0.0000       2.266999        61.6882 
 124   0.0000       2.275445        61.9180 
 125   0.0000       2.282907        62.1210 
 126   0.0000       2.325767        63.2873 
 127   0.0000       2.332270        63.4643 
 128   0.0000       2.341174        63.7066 
 129   0.0000       2.363476        64.3134 
 130   0.0000       2.417225        65.7760 
 131   0.0000       2.421057        65.8803 
 132   0.0000       2.442041        66.4513 
 133   0.0000       2.940778        80.0226 
 134   0.0000       2.941252        80.0355 
 135   0.0000       2.961178        80.5778 
 136   0.0000       2.968443        80.7754 
 137   0.0000       2.972243        80.8788 
 138   0.0000       2.978671        81.0538 
 139   0.0000       2.985126        81.2294 
 140   0.0000       2.987846        81.3034 
 141   0.0000       2.991851        81.4124 
 142   0.0000       3.018706        82.1432 
 143   0.0000       3.023353        82.2696 
 144   0.0000       3.050206        83.0003 
 145   0.0000       3.081451        83.8505 
 146   0.0000       3.092287        84.1454 
 147   0.0000       3.144122        85.5559 
 148   0.0000       3.179706        86.5242 
 149   0.0000       3.198828        87.0445 
 150   0.0000       3.213909        87.4549 
 151   0.0000       3.217216        87.5449 
 152   0.0000       3.238830        88.1330 
 153   0.0000       3.270952        89.0071 
 154   0.0000       3.459960        94.1503 
 155   0.0000       3.496235        95.1374 
 156   0.0000       3.517006        95.7026 
 157   0.0000       3.563905        96.9788 
 158   0.0000       3.581389        97.4545 
 159   0.0000       3.610372        98.2432 
 160   0.0000       3.649923        99.3195 
 161   0.0000       3.821901       103.9992 
 162   0.0000       3.834583       104.3443 
 163   0.0000       3.851187       104.7961 
 164   0.0000       3.871833       105.3579 
 165   0.0000       3.901007       106.1518 
 166   0.0000       3.937088       107.1336 
 167   0.0000       3.966135       107.9240 

                    ********************************
                    * MULLIKEN POPULATION ANALYSIS *
                    ********************************

-----------------------
MULLIKEN ATOMIC CHARGES
-----------------------
   0 O :   -0.299258
   1 H :    0.209659
   2 H :    0.209690
   3 O :   -0.279739
   4 H :    0.135063
   5 H :    0.208309
   6 O :   -0.334134
   7 H :    0.196368
   8 H :    0.172882
   9 O :   -0.388772
  10 H :    0.185870
  11 H :    0.168347
  12 O :   -0.414943
  13 H :    0.182777
  14 H :    0.171962
  15 O :   -0.467115
  16 H :    0.215573
  17 H :    0.188807
  18 O :   -0.377867
  19 H :    0.148064
  20 H :    0.168459
Sum of atomic charges:   -0.0000000

--------------------------------
MULLIKEN REDUCED ORBITAL CHARGES
--------------------------------
  0 O s       :     3.682502  s :     3.682502
      pz      :     1.505580  p :     4.607591
      px      :     1.534459
      py      :     1.567552
      dz2     :     0.000598  d :     0.009165
      dxz     :     0.003746
      dyz     :     0.000519
      dx2y2   :     0.001199
      dxy     :     0.003102
  1 H s       :     0.719018  s :     0.719018
      pz      :     0.028541  p :     0.071324
      px      :     0.023365
      py      :     0.019418
  2 H s       :     0.717865  s :     0.717865
      pz      :     0.022476  p :     0.072446
      px      :     0.021234
      py      :     0.028736
  3 O s       :     3.643509  s :     3.643509
      pz      :     1.480819  p :     4.626824
      px      :     1.760862
      py      :     1.385143
      dz2     :     0.003406  d :     0.009407
      dxz     :     0.001727
      dyz     :     0.000375
      dx2y2   :     0.003320
      dxy     :     0.000580
  4 H s       :     0.785516  s :     0.785516
      pz      :     0.019256  p :     0.079420
      px      :     0.020964
      py      :     0.039200
  5 H s       :     0.718376  s :     0.718376
      pz      :     0.034222  p :     0.073314
      px      :     0.022922
      py      :     0.016171
  6 O s       :     3.673337  s :     3.673337
      pz      :     1.322640  p :     4.651038
      px      :     1.684749
      py      :     1.643649
      dz2     :     0.000499  d :     0.009759
      dxz     :     0.001584
      dyz     :     0.004155
      dx2y2   :     0.001483
      dxy     :     0.002038
  7 H s       :     0.731411  s :     0.731411
      pz      :     0.025317  p :     0.072221
      px      :     0.027087
      py      :     0.019817
  8 H s       :     0.752870  s :     0.752870
      pz      :     0.032359  p :     0.074248
      px      :     0.018073
      py      :     0.023816
  9 O s       :     3.644070  s :     3.644070
      pz      :     1.327804  p :     4.735617
      px      :     1.798425
      py      :     1.609388
      dz2     :     0.001964  d :     0.009085
      dxz     :     0.000390
      dyz     :     0.003054
      dx2y2   :     0.001266
      dxy     :     0.002410
 10 H s       :     0.744919  s :     0.744919
      pz      :     0.035828  p :     0.069210
      px      :     0.018322
      py      :     0.015060
 11 H s       :     0.754620  s :     0.754620
      pz      :     0.023824  p :     0.077033
      px      :     0.024795
      py      :     0.028415
 12 O s       :     3.662620  s :     3.662620
      pz      :     1.857352  p :     4.743567
      px      :     1.585465
      py      :     1.300750
      dz2     :     0.001173  d :     0.008757
      dxz     :     0.001515
      dyz     :     0.000475
      dx2y2   :     0.000344
      dxy     :     0.005249
 13 H s       :     0.744804  s :     0.744804
      pz      :     0.019338  p :     0.072419
      px      :     0.024399
      py      :     0.028682
 14 H s       :     0.757307  s :     0.757307
      pz      :     0.021137  p :     0.070731
      px      :     0.020595
      py      :     0.028998
 15 O s       :     3.730067  s :     3.730067
      pz      :     1.435709  p :     4.728684
      px      :     1.441039
      py      :     1.851936
      dz2     :     0.002411  d :     0.008364
      dxz     :     0.000718
      dyz     :     0.001823
      dx2y2   :     0.002248
      dxy     :     0.001165
 16 H s       :     0.722012  s :     0.722012
      pz      :     0.015642  p :     0.062415
      px      :     0.031562
      py      :     0.015211
 17 H s       :     0.742051  s :     0.742051
      pz      :     0.035403  p :     0.069143
      px      :     0.013493
      py      :     0.020246
 18 O s       :     3.684416  s :     3.684416
      pz      :     1.325041  p :     4.683886
      px      :     1.450758
      py      :     1.908087
      dz2     :     0.003027  d :     0.009566
      dxz     :     0.001976
      dyz     :     0.000864
      dx2y2   :     0.002883
      dxy     :     0.000816
 19 H s       :     0.776652  s :     0.776652
      pz      :     0.017654  p :     0.075285
      px      :     0.039899
      py      :     0.017732
 20 H s       :     0.760049  s :     0.760049
      pz      :     0.034403  p :     0.071492
      px      :     0.016143
      py      :     0.020945


                     *******************************
                     * LOEWDIN POPULATION ANALYSIS *
                     *******************************

----------------------
LOEWDIN ATOMIC CHARGES
----------------------
   0 O :   -0.083529
   1 H :    0.109930
   2 H :    0.103652
   3 O :   -0.040343
   4 H :    0.021235
   5 H :    0.107062
   6 O :   -0.136960
   7 H :    0.101931
   8 H :    0.073746
   9 O :   -0.164722
  10 H :    0.079840
  11 H :    0.048771
  12 O :   -0.198746
  13 H :    0.074229
  14 H :    0.055437
  15 O :   -0.271935
  16 H :    0.125860
  17 H :    0.065532
  18 O :   -0.187794
  19 H :    0.047244
  20 H :    0.069560

-------------------------------
LOEWDIN REDUCED ORBITAL CHARGES
-------------------------------
  0 O s       :     3.413965  s :     3.413965
      pz      :     1.504111  p :     4.651947
      px      :     1.585797
      py      :     1.562039
      dz2     :     0.000893  d :     0.017617
      dxz     :     0.007344
      dyz     :     0.002509
      dx2y2   :     0.001263
      dxy     :     0.005607
  1 H s       :     0.711679  s :     0.711679
      pz      :     0.067543  p :     0.178391
      px      :     0.065910
      py      :     0.044938
  2 H s       :     0.713063  s :     0.713063
      pz      :     0.050838  p :     0.183285
      px      :     0.060118
      py      :     0.072329
  3 O s       :     3.361172  s :     3.361172
      pz      :     1.500130  p :     4.660156
      px      :     1.705818
      py      :     1.454208
      dz2     :     0.006913  d :     0.019016
      dxz     :     0.004125
      dyz     :     0.000183
      dx2y2   :     0.007304
      dxy     :     0.000491
  4 H s       :     0.760759  s :     0.760759
      pz      :     0.047300  p :     0.218005
      px      :     0.058343
      py      :     0.112363
  5 H s       :     0.707196  s :     0.707196
      pz      :     0.087465  p :     0.185742
      px      :     0.063319
      py      :     0.034957
  6 O s       :     3.408127  s :     3.408127
      pz      :     1.365055  p :     4.710080
      px      :     1.682019
      py      :     1.663007
      dz2     :     0.001575  d :     0.018753
      dxz     :     0.003922
      dyz     :     0.008755
      dx2y2   :     0.001605
      dxy     :     0.002897
  7 H s       :     0.716697  s :     0.716697
      pz      :     0.052354  p :     0.181372
      px      :     0.073052
      py      :     0.055966
  8 H s       :     0.735175  s :     0.735175
      pz      :     0.073664  p :     0.191079
      px      :     0.048515
      py      :     0.068899
  9 O s       :     3.375610  s :     3.375610
      pz      :     1.369968  p :     4.770930
      px      :     1.755613
      py      :     1.645348
      dz2     :     0.004904  d :     0.018182
      dxz     :     0.001555
      dyz     :     0.006216
      dx2y2   :     0.001289
      dxy     :     0.004218
 10 H s       :     0.742215  s :     0.742215
      pz      :     0.088023  p :     0.177945
      px      :     0.049039
      py      :     0.040883
 11 H s       :     0.738694  s :     0.738694
      pz      :     0.053751  p :     0.212535
      px      :     0.074130
      py      :     0.084654
 12 O s       :     3.405015  s :     3.405015
      pz      :     1.801746  p :     4.776702
      px      :     1.627229
      py      :     1.347727
      dz2     :     0.002168  d :     0.017029
      dxz     :     0.001734
      dyz     :     0.001684
      dx2y2   :     0.000221
      dxy     :     0.011222
 13 H s       :     0.733905  s :     0.733905
      pz      :     0.056336  p :     0.191867
      px      :     0.070269
      py      :     0.065261
 14 H s       :     0.754355  s :     0.754355
      pz      :     0.060351  p :     0.190208
      px      :     0.059606
      py      :     0.070250
 15 O s       :     3.492201  s :     3.492201
      pz      :     1.461647  p :     4.765167
      px      :     1.482356
      py      :     1.821164
      dz2     :     0.004759  d :     0.014566
      dxz     :     0.001205
      dyz     :     0.003362
      dx2y2   :     0.003925
      dxy     :     0.001314
 16 H s       :     0.721437  s :     0.721437
      pz      :     0.031802  p :     0.152703
      px      :     0.079468
      py      :     0.041433
 17 H s       :     0.746506  s :     0.746506
      pz      :     0.097411  p :     0.187962
      px      :     0.031155
      py      :     0.059396
 18 O s       :     3.433114  s :     3.433114
      pz      :     1.380618  p :     4.737293
      px      :     1.505317
      py      :     1.851358
      dz2     :     0.006649  d :     0.017388
      dxz     :     0.003461
      dyz     :     0.001718
      dx2y2   :     0.005224
      dxy     :     0.000336
 19 H s       :     0.752369  s :     0.752369
      pz      :     0.036299  p :     0.200387
      px      :     0.113768
      py      :     0.050320
 20 H s       :     0.746035  s :     0.746035
      pz      :     0.085704  p :     0.184405
      px      :     0.041320
      py      :     0.057381


                      *****************************
                      * MAYER POPULATION ANALYSIS *
                      *****************************

  NA   - Mulliken gross atomic population
  ZA   - Total nuclear charge
  QA   - Mulliken gross atomic charge
  VA   - Mayer's total valence
  BVA  - Mayer's bonded valence
  FA   - Mayer's free valence

  ATOM       NA         ZA         QA         VA         BVA        FA
  0 O      8.2993     8.0000    -0.2993     2.1809     2.1809    -0.0000
  1 H      0.7903     1.0000     0.2097     0.9961     0.9961     0.0000
  2 H      0.7903     1.0000     0.2097     0.9898     0.9898     0.0000
  3 O      8.2797     8.0000    -0.2797     2.1773     2.1773     0.0000
  4 H      0.8649     1.0000     0.1351     1.1234     1.1234    -0.0000
  5 H      0.7917     1.0000     0.2083     0.9977     0.9977    -0.0000
  6 O      8.3341     8.0000    -0.3341     2.0726     2.0726    -0.0000
  7 H      0.8036     1.0000     0.1964     0.9975     0.9975    -0.0000
  8 H      0.8271     1.0000     0.1729     1.0286     1.0286    -0.0000
  9 O      8.3888     8.0000    -0.3888     1.9846     1.9846     0.0000
 10 H      0.8141     1.0000     0.1859     1.0471     1.0471     0.0000
 11 H      0.8317     1.0000     0.1683     1.0231     1.0231     0.0000
 12 O      8.4149     8.0000    -0.4149     1.9672     1.9672    -0.0000
 13 H      0.8172     1.0000     0.1828     1.0086     1.0086    -0.0000
 14 H      0.8280     1.0000     0.1720     1.0787     1.0787    -0.0000
 15 O      8.4671     8.0000    -0.4671     1.9301     1.9301    -0.0000
 16 H      0.7844     1.0000     0.2156     0.9759     0.9759    -0.0000
 17 H      0.8112     1.0000     0.1888     1.0602     1.0602     0.0000
 18 O      8.3779     8.0000    -0.3779     2.0334     2.0334     0.0000
 19 H      0.8519     1.0000     0.1481     1.0961     1.0961    -0.0000
 20 H      0.8315     1.0000     0.1685     1.0493     1.0493    -0.0000

  Mayer bond orders larger than 0.100000
B(  0-O ,  1-H ) :   0.9633 B(  0-O ,  2-H ) :   0.9662 B(  0-O ,  4-H ) :   0.1093 
B(  0-O , 14-H ) :   0.1078 B(  3-O ,  4-H ) :   0.9407 B(  3-O ,  5-H ) :   0.9698 
B(  3-O , 17-H ) :   0.1201 B(  3-O , 19-H ) :   0.1203 B(  6-O ,  7-H ) :   0.9793 
B(  6-O ,  8-H ) :   0.9858 B(  9-O , 10-H ) :   0.9572 B(  9-O , 11-H ) :   1.0090 
B( 12-O , 13-H ) :   0.9959 B( 12-O , 14-H ) :   0.9479 B( 15-O , 16-H ) :   0.9717 
B( 15-O , 17-H ) :   0.9311 B( 18-O , 19-H ) :   0.9479 B( 18-O , 20-H ) :   0.9761 


-------
TIMINGS
-------

Total SCF time: 0 days 0 hours 0 min 11 sec 

Total time                  ....      11.791 sec
Sum of individual times     ....      11.141 sec  ( 94.5%)

Fock matrix formation       ....      10.180 sec  ( 86.3%)
  XC integration            ....       0.820 sec  (  8.1% of F)
    Basis function eval.    ....       0.356 sec  ( 43.4% of XC)
    Density eval.           ....       0.153 sec  ( 18.7% of XC)
    XC-Functional eval.     ....       0.085 sec  ( 10.4% of XC)
    XC-Potential eval.      ....       0.167 sec  ( 20.3% of XC)
Diagonalization             ....       0.026 sec  (  0.2%)
Density matrix formation    ....       0.004 sec  (  0.0%)
Population analysis         ....       0.009 sec  (  0.1%)
Initial guess               ....       0.179 sec  (  1.5%)
Orbital Transformation      ....       0.000 sec  (  0.0%)
Orbital Orthonormalization  ....       0.000 sec  (  0.0%)
DIIS solution               ....       0.007 sec  (  0.1%)
SOSCF solution              ....       0.011 sec  (  0.1%)
Grid generation             ....       0.725 sec  (  6.2%)


-------------------------------------------------------------------------------
                          DFT DISPERSION CORRECTION                            
                                                                               
                              DFTD3 V3.1  Rev 1                                
                          USING Becke-Johnson damping                          
-------------------------------------------------------------------------------
The PBE0 functional is recognized
Active option DFTDOPT                   ...         4   

molecular C6(AA) [au] = 2181.919105 


            DFT-D V3
 parameters
 s6 scaling factor         :     1.0000 
 a1 scaling factor         :     0.4145 
 s8 scaling factor         :     1.2177 
 a2 scaling factor         :     4.8593 
 ad hoc parameters k1-k3   :    16.0000     1.3333    -4.0000 

 Edisp/kcal,au: -5.442445406898  -0.008673087900 
 E6   /kcal   :  -3.806399407 
 E8   /kcal   :  -1.636046000 
 % E8         :  30.060861943 

-------------------------   ----------------
Dispersion correction           -0.008673088
-------------------------   ----------------


-------------------------   --------------------
FINAL SINGLE POINT ENERGY      -534.045954712816
-------------------------   --------------------

[1615912819.861202] [comp0813:188989:0]            sys.c:618  UCX  ERROR shmget(size=2097152 flags=0xfb0) for mm_recv_desc failed: Operation not permitted, please check shared memory limits by 'ipcs -l'
[1615912819.865522] [comp0813:188987:0]            sys.c:618  UCX  ERROR shmget(size=2097152 flags=0xfb0) for mm_recv_desc failed: Operation not permitted, please check shared memory limits by 'ipcs -l'
[1615912819.871421] [comp0813:188988:0]            sys.c:618  UCX  ERROR shmget(size=2097152 flags=0xfb0) for mm_recv_desc failed: Operation not permitted, please check shared memory limits by 'ipcs -l'
[1615912819.882233] [comp0813:188990:0]            sys.c:618  UCX  ERROR shmget(size=2097152 flags=0xfb0) for mm_recv_desc failed: Operation not permitted, please check shared memory limits by 'ipcs -l'
[1615912819.897427] [comp0813:188989:0]            sys.c:618  UCX  ERROR shmget(size=2097152 flags=0xb80) for ucp_am_bufs failed: Operation not permitted, please check shared memory limits by 'ipcs -l'
[1615912819.898282] [comp0813:188990:0]            sys.c:618  UCX  ERROR shmget(size=2097152 flags=0xb80) for ucp_am_bufs failed: Operation not permitted, please check shared memory limits by 'ipcs -l'


           ************************************************************
           *        Program running with 4 parallel MPI-processes     *
           *              working on a common directory               *
           ************************************************************
[1615912819.901725] [comp0813:188988:0]            sys.c:618  UCX  ERROR shmget(size=2097152 flags=0xb80) for ucp_am_bufs failed: Operation not permitted, please check shared memory limits by 'ipcs -l'
------------------------------------------------------------------------------
                         ORCA SCF GRADIENT CALCULATION
------------------------------------------------------------------------------

Gradient of the Kohn-Sham DFT energy:
Kohn-Sham wavefunction type      ... RKS
Hartree-Fock exchange scaling    ...    0.250
Number of operators              ...    1
Number of atoms                  ...   21
Basis set dimensions             ...  168
Integral neglect threshold       ... 2.5e-11
Integral primitive cutoff        ... 2.5e-12

Nuclear repulsion gradient       ... done
One Electron Gradient            ... done
Pre-screening matrix             ... done
Starting the two electron gradient:
Two electron gradient done
Exchange-correlation gradient    ... done
Dispersion correction            ... done

------------------
CARTESIAN GRADIENT
------------------

   1   O   :    0.005178581   -0.005859141   -0.003902505
   2   H   :    0.000752301   -0.004017430   -0.000571782
   3   H   :   -0.003117546    0.009063892    0.004708353
   4   O   :   -0.003860038   -0.055655385   -0.007303752
   5   H   :    0.003442576    0.064084259   -0.015911232
   6   H   :   -0.008117706   -0.007539898    0.018894937
   7   O   :   -0.008188892   -0.014735064    0.019087786
   8   H   :    0.004770231    0.001363685    0.006042364
   9   H   :    0.001654761    0.012328368   -0.024889529
  10   O   :   -0.042950871   -0.068465065    0.044301844
  11   H   :    0.004026923    0.003518680   -0.012714043
  12   H   :    0.034149075    0.064841318   -0.028469712
  13   O   :    0.025238472   -0.025873515    0.004965279
  14   H   :   -0.021519289    0.013748323   -0.002153684
  15   H   :   -0.003580773    0.012127361   -0.000066318
  16   O   :    0.052613942    0.025300176    0.012513527
  17   H   :   -0.046281233   -0.012358109    0.010727669
  18   H   :   -0.006794859   -0.009470507   -0.021551742
  19   O   :   -0.008041237   -0.001070238   -0.005138057
  20   H   :    0.012778512   -0.007379293   -0.002989352
  21   H   :    0.007847072    0.006047584    0.004419948

Difference to translation invariance:
           :    0.0000000000   -0.0000000000   -0.0000000000

Norm of the cartesian gradient     ...    0.1836686404
RMS gradient                       ...    0.0231400736
MAX gradient                       ...    0.0684650653

-------
TIMINGS
-------

Total SCF gradient time            ...        3.633 sec

One electron gradient       ....       0.036 sec  (  1.0%)
Prescreening matrices       ....       0.018 sec  (  0.5%)
Two electron gradient       ....       1.520 sec  ( 41.8%)
XC gradient                 ....       1.221 sec  ( 33.6%)
CPCM gradient               ....       0.640 sec  ( 17.6%)
   A-Matrix (El+Nuc)        ....       0.079 sec  (  2.2%)
   Potential                ....       0.561 sec  ( 15.5%)
------------------------------------------------------------------------------
                         ORCA GEOMETRY RELAXATION STEP
------------------------------------------------------------------------------

Reading the OPT-File                    .... done
Getting information on internals        .... done
Copying old internal coords+grads       .... done
Making the new internal coordinates     .... (new redundants).... done
Validating the new internal coordinates .... (new redundants).... done
Calculating the B-matrix                .... done
Calculating the G,G- and P matrices     .... done
Transforming gradient to internals      .... done
Projecting the internal gradient        .... done
Number of atoms                         ....  21
Number of internal coordinates          .... 203
Current Energy                          ....  -534.045954713 Eh
Current gradient norm                   ....     0.183668640 Eh/bohr
Maximum allowed component of the step   ....  0.300
Current trust radius                    ....  0.300
Evaluating the initial hessian          ....  (Almloef) done
Projecting the Hessian                  .... done
Forming the augmented Hessian           .... done
Diagonalizing the augmented Hessian     .... done
Last element of RFO vector              ....  0.951155286
Lowest eigenvalues of augmented Hessian:
 -0.030352620  0.000943954  0.001294738  0.001728178  0.002344999
Length of the computed step             ....  0.324566189
Warning: the length of the step is outside the trust region - taking restricted step instead
The input lambda is                     ....    -0.030353
   iter:   1  x=   -0.036710  g=    2.413562 f(x)=     0.015343
   iter:   2  x=   -0.038334  g=    1.647474 f(x)=     0.002677
   iter:   3  x=   -0.038409  g=    1.512517 f(x)=     0.000112
   iter:   4  x=   -0.038409  g=    1.506784 f(x)=     0.000000
   iter:   5  x=   -0.038409  g=    1.506773 f(x)=     0.000000
   iter:   6  x=   -0.038409  g=    1.506773 f(x)=     0.000000
The output lambda is                    ....    -0.038409 (6 iterations)
The final length of the internal step   ....  0.300000000
Converting the step to cartesian space:
 Initial RMS(Int)=    0.0210558722
Transforming coordinates:
 Iter   0:  RMS(Cart)=    0.0450269325 RMS(Int)=    0.0210626525
 Iter   1:  RMS(Cart)=    0.0010565677 RMS(Int)=    0.0004563251
 Iter   2:  RMS(Cart)=    0.0000615580 RMS(Int)=    0.0000313643
 Iter   3:  RMS(Cart)=    0.0000025345 RMS(Int)=    0.0000013582
 Iter   4:  RMS(Cart)=    0.0000002200 RMS(Int)=    0.0000000814
 Iter   5:  RMS(Cart)=    0.0000000163 RMS(Int)=    0.0000000079
done
Storing new coordinates                 .... done

                                .--------------------.
          ----------------------|Geometry convergence|-------------------------
          Item                value                   Tolerance       Converged
          ---------------------------------------------------------------------
          RMS gradient        0.0084701816            0.0005000000      NO
          MAX gradient        0.0776985526            0.0020000000      NO
          RMS step            0.0210558722            0.0070000000      NO
          MAX step            0.1137763902            0.0100000000      NO
          ........................................................
          Max(Bonds)      0.0602      Max(Angles)    3.20
          Max(Dihed)        1.72      Max(Improp)    0.00
          ---------------------------------------------------------------------

The optimization has not yet converged - more geometry cycles are needed


    ---------------------------------------------------------------------------
                         Redundant Internal Coordinates
                            (Angstroem and degrees)

        Definition                    Value    dE/dq     Step     New-Value
    ----------------------------------------------------------------------------
     1. B(H   1,O   0)                0.9664 -0.000897  0.0009    0.9673   
     2. B(H   2,O   0)                0.9579 -0.005265  0.0083    0.9662   
[...]
     24      -0.177803  -0.001417  -0.007171  -0.044952   0.000181   0.007965
     25       0.116842   0.003103   0.003106   0.027210  -0.000273   0.018177
     26      -0.651865  -0.005346  -0.025960  -0.165995   0.000610  -0.062347
     27      -0.002032  -0.000809   0.004711   0.015431   0.000172   0.000086
     28       0.010488  -0.001745  -0.016235  -0.054970   0.001260  -0.000261
     29      -0.008352   0.012979  -0.001352   0.003924   0.000526   0.000006
     30      -0.008062   0.009265   0.000931   0.008609  -0.001106  -0.000129
     31      -0.023442   0.048065  -0.016301  -0.024669   0.002758   0.000286
     32       0.123913  -0.213402   0.042344   0.000954  -0.009722   0.000107
     33       0.034953   0.005647  -0.075173  -0.247199   0.004618  -0.001478
     34      -0.136316  -0.022728   0.270918   0.888264  -0.020088   0.004409
     35       0.009050   0.005508  -0.018080  -0.056683   0.001664   0.000339
     36      -0.006086   0.003638   0.002368  -0.008525   0.000191  -0.000809
     37      -0.002825   0.001034   0.000136  -0.003740   0.000099  -0.003195
     38      -0.000633   0.000408   0.000824   0.000773   0.000015   0.001693
     39      -0.003553   0.001651   0.000266  -0.007217   0.000163   0.002686
     40       0.002592   0.005922   0.016290   0.020865   0.000440   0.048124
     41      -0.008141  -0.003382  -0.009483  -0.011878  -0.000196  -0.031832
     42       0.103653  -0.060889  -0.040732   0.142129  -0.003253   0.009459
     43       0.036069  -0.022570  -0.016812   0.050249  -0.001952   0.002367
     44       0.005234  -0.003265  -0.002269   0.005646  -0.000124   0.000851
     45      -0.001026  -0.001650   0.002605   0.005008  -0.019217  -0.000015
     46      -0.000336  -0.000943   0.002261   0.000884  -0.025392  -0.000012
     47      -0.000277   0.000479  -0.003576   0.003359   0.052920   0.000012
     48       0.016541   0.022173  -0.019933  -0.096804   0.020098   0.000254
     49       0.006217   0.008269  -0.006809  -0.035389  -0.000358   0.000147
     50       0.003556   0.004437  -0.006515  -0.015423   0.026223   0.000092
     51      -0.000249   0.003690  -0.018496   0.013969   0.274893   0.000111
     52      -0.000192   0.007613  -0.034555   0.020676   0.406545   0.000163
     53       0.001618  -0.010698   0.056494  -0.038104  -0.862085  -0.000307
     54       0.004988   0.054198  -0.020592   0.007912  -0.002563  -0.000239
     55       0.042198   0.009886  -0.006668   0.002612  -0.000831  -0.001438
     56       0.010995   0.004190  -0.002663   0.000239  -0.000252  -0.000324
     57      -0.047315  -0.868111   0.333123  -0.127245   0.043285   0.003259
     58       0.006053  -0.212391   0.077548  -0.030348   0.010152   0.000197
     59      -0.002417  -0.078680   0.032583  -0.010518   0.004767   0.000087
     60      -0.025424   0.023508  -0.006477   0.002555  -0.000718   0.001060
     61      -0.663322   0.065734   0.024712  -0.007976   0.003054   0.023520
     62      -0.168695   0.020242   0.005895  -0.000222   0.000524   0.004511
                  60         61         62    
      0      -0.053577   0.005338   0.007046
      1       0.023201  -0.001811  -0.002933
      2      -0.019897   0.001953   0.003134
      3      -0.004170   0.001490   0.003273
      4      -0.031244  -0.000450  -0.002071
      5      -0.037462   0.001359  -0.000161
      6       0.853186  -0.081544  -0.114081
      7      -0.332236   0.032312   0.044592
      8       0.356676  -0.034109  -0.046925
      9       0.004283  -0.006058   0.031069
     10       0.000561  -0.003120   0.019054
     11      -0.005143   0.009338  -0.050530
     12      -0.003790  -0.007403   0.053781
     13       0.015539   0.010981  -0.101389
     14      -0.011136  -0.000793   0.027794
     15      -0.064755   0.103935  -0.548420
     16      -0.024227   0.037773  -0.197853
     17       0.091759  -0.146280   0.770742
     18      -0.000659  -0.003671  -0.000609
     19      -0.000148  -0.000683  -0.000098
     20      -0.000277  -0.002050  -0.000376
     21       0.009887   0.051752   0.008454
     22       0.003004   0.015807   0.002584
     23       0.000842   0.004175   0.000654
     24       0.000777   0.006956   0.001384
     25      -0.000775  -0.005261  -0.000867
     26       0.003580   0.028590   0.005273
     27      -0.000034  -0.000579  -0.000111
     28       0.000280   0.001922   0.000339
     29      -0.000003  -0.000185  -0.000014
     30      -0.000184  -0.000137   0.000077
     31       0.000182   0.000302   0.000029
     32      -0.000289   0.001448   0.000169
     33       0.001168   0.009835   0.001863
     34      -0.004586  -0.031272  -0.005537
     35       0.000317   0.001548   0.000214
     36       0.000510  -0.007376  -0.001740
     37      -0.005653  -0.051516  -0.009177
     38       0.003963   0.032371   0.005628
     39       0.007179   0.055321   0.009471
     40       0.098263   0.814097   0.142036
     41      -0.063634  -0.528388  -0.092251
     42      -0.016279   0.056145   0.017724
     43      -0.008857   0.001198   0.003608
     44       0.000026   0.014598   0.002897
     45       0.000107   0.000079  -0.000701
     46      -0.000677   0.000250  -0.000698
     47       0.000866  -0.000424   0.001700
     48      -0.004587   0.000869   0.001667
     49      -0.001541   0.000145   0.000146
     50       0.000018  -0.000176   0.000713
     51       0.004981  -0.002382   0.009068
     52       0.007821  -0.003469   0.011940
     53      -0.015335   0.007171  -0.027050
     54      -0.000176   0.000276  -0.001424
     55      -0.000040   0.000158  -0.000415
     56      -0.000013   0.000039  -0.000185
     57       0.003041  -0.004605   0.023700
     58       0.000681  -0.000992   0.004674
     59       0.000165  -0.000359   0.002452
     60      -0.000080   0.000077  -0.000150
     61      -0.000156  -0.001387   0.001741
     62      -0.000084  -0.000198   0.000562


-----------
IR SPECTRUM
-----------

 Mode    freq (cm**-1)   T**2         TX         TY         TZ
-------------------------------------------------------------------
   7:        33.86    7.171536  (  1.543575   0.857741  -2.013254)
   8:        57.38    6.771352  (  0.735859  -2.400662  -0.683143)
   9:        77.19    2.250110  ( -1.399036  -0.387377   0.377819)
  10:        91.98   11.141576  (  2.176509   1.472295  -2.058333)
  11:        94.55    3.325879  ( -1.422747   1.037189   0.475298)
  12:       185.42   85.841694  ( -8.413067  -0.269154  -3.871635)
  13:       201.70   49.224234  (  2.324012  -4.373646  -4.969348)
  14:       211.32   21.419825  (  0.633696  -3.901477  -2.407641)
  15:       233.68   30.280357  ( -1.924040   4.619981  -2.287838)
  16:       235.42   19.991292  ( -1.427778   3.963444   1.497949)
  17:       243.28   65.046388  (  0.753783   5.851733   5.498674)
  18:       247.07   55.294674  (  1.286012   6.847300   2.599101)
  19:       247.85   54.625781  (  1.973270   7.094113   0.636822)
  20:       262.58   67.010428  ( -5.406105  -3.464192  -5.077777)
  21:       269.50   33.066528  ( -0.951833  -5.204888  -2.251596)
  22:       292.88   99.356859  ( -7.298657   2.647962   6.250980)
  23:       300.28   55.683276  (  2.914722   6.551193  -2.066286)
  24:       306.85  109.278207  ( -5.600129   6.949561   5.442459)
  25:       369.20  115.453439  (  4.612064  -9.049615  -3.505250)
  26:       412.12  289.085975  (  3.958526 -11.040883  12.309141)
  27:       445.82  208.785488  ( -6.309551   0.732755  12.978371)
  28:       517.91  290.658372  ( -5.825956 -15.661080  -3.383370)
  29:       545.41   97.658233  ( -9.630127   0.296398   2.197963)
  30:       593.56   95.866236  (  2.958338   8.113711   4.613259)
  31:       611.86  106.081853  ( -2.781458   9.878201   0.875497)
  32:       616.24   38.693295  ( -0.246501   0.788931  -6.165235)
  33:       678.25  162.880995  (  7.933816   0.549886   9.981642)
  34:       717.98  103.608456  (  8.165333   3.135337  -5.206290)
  35:       733.21  141.279394  (  5.102328 -10.563830   1.910792)
  36:       793.53  297.107351  ( -7.834278 -11.990470   9.589581)
  37:       839.63  324.876513  (  5.247467  15.556586   7.438632)
  38:       924.74  308.691072  ( -4.422415   6.430732  15.740997)
  39:       937.09   77.781607  ( -1.007217  -1.012713   8.702961)
  40:      1002.14  304.912272  (-17.252993   0.466062  -2.651278)
  41:      1056.78   92.870854  (  1.165515  -5.495988   7.829850)
  42:      1584.02  100.005521  (  1.384641  -1.283207  -9.820472)
  43:      1601.07   51.269479  ( -4.171466   5.732133   1.005485)
  44:      1622.65  152.363774  ( 11.862148  -3.393305   0.372418)
  45:      1651.29  103.616526  (  3.715961   7.451055  -5.855761)
  46:      1673.80   81.865991  ( -7.643992   3.749726  -3.061852)
  47:      1674.96  112.898136  ( -4.142365  -0.468517  -9.773405)
  48:      1697.85  180.777215  ( -4.835079   8.245336   9.455880)
  49:      3173.52  533.429675  ( 15.324856 -16.742794  -4.272855)
  50:      3266.16  1969.299590  (-21.328081 -26.203155 -28.771639)
  51:      3318.59  1204.838426  (-34.636935   0.886454   2.082161)
  52:      3338.20  461.604516  ( 15.018430   6.781474 -13.786330)
  53:      3419.28  1442.488666  ( 13.124911  25.616951 -24.778967)
  54:      3474.83  897.757497  ( -5.661749 -19.440801 -22.085230)
  55:      3496.88  1108.387992  (-30.075857   3.811964 -13.758625)
  56:      3567.10  992.976274  ( -2.468674  30.157675  -8.797532)
  57:      3574.73  447.777008  ( -8.300525  19.045986  -4.016059)
  58:      3733.31  402.080002  (  7.610868   5.821043 -17.614487)
  59:      3859.19  109.457804  ( -9.534890  -1.553036  -4.016436)
  60:      3867.63  146.718148  ( 10.479040  -5.003555   3.445621)
  61:      3876.58  208.200376  (  3.919924  11.576027  -7.670083)
  62:      3879.02  115.463511  ( -5.407110  -2.613828   8.910363)

The first frequency considered to be a vibration is 7
The total number of vibrations considered is 56


--------------------------
THERMOCHEMISTRY AT 298.15K
--------------------------

Temperature         ... 298.15 K
Pressure            ... 1.00 atm
Total Mass          ... 126.10 AMU

Throughout the following assumptions are being made:
  (1) The electronic state is orbitally nondegenerate
  (2) There are no thermally accessible electronically excited states
  (3) Hindered rotations indicated by low frequency modes are not
      treated as such but are treated as vibrations and this may
      cause some error
  (4) All equations used are the standard statistical mechanics
      equations for an ideal gas
  (5) All vibrations are strictly harmonic

freq.      33.86  E(vib)   ...       0.55 
freq.      57.38  E(vib)   ...       0.51 
freq.      77.19  E(vib)   ...       0.49 
freq.      91.98  E(vib)   ...       0.47 
freq.      94.55  E(vib)   ...       0.47 
freq.     185.42  E(vib)   ...       0.37 
freq.     201.70  E(vib)   ...       0.35 
freq.     211.32  E(vib)   ...       0.34 
freq.     233.68  E(vib)   ...       0.32 
freq.     235.42  E(vib)   ...       0.32 
freq.     243.28  E(vib)   ...       0.31 
freq.     247.07  E(vib)   ...       0.31 
freq.     247.85  E(vib)   ...       0.31 
freq.     262.58  E(vib)   ...       0.29 
freq.     269.50  E(vib)   ...       0.29 
freq.     292.88  E(vib)   ...       0.27 
freq.     300.28  E(vib)   ...       0.26 
freq.     306.85  E(vib)   ...       0.26 
freq.     369.20  E(vib)   ...       0.21 
freq.     412.12  E(vib)   ...       0.19 
freq.     445.82  E(vib)   ...       0.17 
freq.     517.91  E(vib)   ...       0.13 
freq.     545.41  E(vib)   ...       0.12 
freq.     593.56  E(vib)   ...       0.10 
freq.     611.86  E(vib)   ...       0.10 
freq.     616.24  E(vib)   ...       0.09 
freq.     678.25  E(vib)   ...       0.08 
freq.     717.98  E(vib)   ...       0.07 
freq.     733.21  E(vib)   ...       0.06 
freq.     793.53  E(vib)   ...       0.05 
freq.     839.63  E(vib)   ...       0.04 
freq.     924.74  E(vib)   ...       0.03 
freq.     937.09  E(vib)   ...       0.03 
freq.    1002.14  E(vib)   ...       0.02 
freq.    1056.78  E(vib)   ...       0.02 
freq.    1584.02  E(vib)   ...       0.00 
freq.    1601.07  E(vib)   ...       0.00 
freq.    1622.65  E(vib)   ...       0.00 
freq.    1651.29  E(vib)   ...       0.00 
freq.    1673.80  E(vib)   ...       0.00 
freq.    1674.96  E(vib)   ...       0.00 
freq.    1697.85  E(vib)   ...       0.00 
freq.    3173.52  E(vib)   ...       0.00 
freq.    3266.16  E(vib)   ...       0.00 
freq.    3318.59  E(vib)   ...       0.00 
freq.    3338.20  E(vib)   ...       0.00 
freq.    3419.28  E(vib)   ...       0.00 
freq.    3474.83  E(vib)   ...       0.00 
freq.    3496.88  E(vib)   ...       0.00 
freq.    3567.10  E(vib)   ...       0.00 
freq.    3574.73  E(vib)   ...       0.00 
freq.    3733.31  E(vib)   ...       0.00 
freq.    3859.19  E(vib)   ...       0.00 
freq.    3867.63  E(vib)   ...       0.00 
freq.    3876.58  E(vib)   ...       0.00 
freq.    3879.02  E(vib)   ...       0.00 

------------
INNER ENERGY
------------

The inner energy is: U= E(el) + E(ZPE) + E(vib) + E(rot) + E(trans)
    E(el)   - is the total energy from the electronic structure calculation
              = E(kin-el) + E(nuc-el) + E(el-el) + E(nuc-nuc)
    E(ZPE)  - the the zero temperature vibrational energy from the frequency calculation
    E(vib)  - the the finite temperature correction to E(ZPE) due to population
              of excited vibrational states
    E(rot)  - is the rotational thermal energy
    E(trans)- is the translational thermal energy

Summary of contributions to the inner energy U:
Electronic energy                ...   -534.12912671 Eh
Zero point energy                ...      0.17482409 Eh     109.70 kcal/mol
Thermal vibrational correction   ...      0.01276585 Eh       8.01 kcal/mol
Thermal rotational correction    ...      0.00141627 Eh       0.89 kcal/mol
Thermal translational correction ...      0.00141627 Eh       0.89 kcal/mol
-----------------------------------------------------------------------
Total thermal energy                   -533.93870422 Eh


Summary of corrections to the electronic energy:
(perhaps to be used in another calculation)
Total thermal correction                  0.01559839 Eh       9.79 kcal/mol
Non-thermal (ZPE) correction              0.17482409 Eh     109.70 kcal/mol
-----------------------------------------------------------------------
Total correction                          0.19042249 Eh     119.49 kcal/mol


--------
ENTHALPY
--------

The enthalpy is H = U + kB*T
                kB is Boltzmann's constant
Total free energy                 ...   -533.93870422 Eh 
Thermal Enthalpy correction       ...      0.00094421 Eh       0.59 kcal/mol
-----------------------------------------------------------------------
Total Enthalpy                    ...   -533.93776001 Eh


Note: Only C1 symmetry has been detected, increase convergence thresholds 
      if your molecule has a higher symmetry. Symmetry factor of 1.0 is   
      used for the rotational entropy correction. 
 

Note: Rotational entropy computed according to Herzberg 
Infrared and Raman Spectra, Chapter V,1, Van Nostrand Reinhold, 1945 
Point Group:  C1, Symmetry Number:   1  
Rotational constants in cm-1:     0.048471     0.035747     0.032663 

Vibrational entropy computed according to the QRRHO of S. Grimme
Chem.Eur.J. 2012 18 9955


-------
ENTROPY
-------

The entropy contributions are T*S = T*(S(el)+S(vib)+S(rot)+S(trans))
     S(el)   - electronic entropy
     S(vib)  - vibrational entropy
     S(rot)  - rotational entropy
     S(trans)- translational entropy
The entropies will be listed as mutliplied by the temperature to get
units of energy

Electronic entropy                ...      0.00000000 Eh      0.00 kcal/mol
Vibrational entropy               ...      0.02242824 Eh     14.07 kcal/mol
Rotational entropy                ...      0.01412768 Eh      8.87 kcal/mol
Translational entropy             ...      0.01919974 Eh     12.05 kcal/mol
-----------------------------------------------------------------------
Final entropy term                ...      0.05575566 Eh     34.99 kcal/mol

In case the symmetry of your molecule has not been determined correctly
or in case you have a reason to use a different symmetry number we print 
out the resulting rotational entropy values for sn=1,12 :
 --------------------------------------------------------
|  sn= 1 | S(rot)=       0.01412768 Eh      8.87 kcal/mol|
|  sn= 2 | S(rot)=       0.01347322 Eh      8.45 kcal/mol|
|  sn= 3 | S(rot)=       0.01309039 Eh      8.21 kcal/mol|
|  sn= 4 | S(rot)=       0.01281877 Eh      8.04 kcal/mol|
|  sn= 5 | S(rot)=       0.01260808 Eh      7.91 kcal/mol|
|  sn= 6 | S(rot)=       0.01243593 Eh      7.80 kcal/mol|
|  sn= 7 | S(rot)=       0.01229039 Eh      7.71 kcal/mol|
|  sn= 8 | S(rot)=       0.01216431 Eh      7.63 kcal/mol|
|  sn= 9 | S(rot)=       0.01205310 Eh      7.56 kcal/mol|
|  sn=10 | S(rot)=       0.01195362 Eh      7.50 kcal/mol|
|  sn=11 | S(rot)=       0.01186363 Eh      7.44 kcal/mol|
|  sn=12 | S(rot)=       0.01178148 Eh      7.39 kcal/mol|
 --------------------------------------------------------


-------------------
GIBBS FREE ENERGY
-------------------

The Gibbs free energy is G = H - T*S

Total enthalpy                    ...   -533.93776001 Eh 
Total entropy correction          ...     -0.05575566 Eh    -34.99 kcal/mol
-----------------------------------------------------------------------
Final Gibbs free energy         ...   -533.99351568 Eh

For completeness - the Gibbs free energy minus the electronic energy
G-E(el)                           ...      0.13561103 Eh     85.10 kcal/mol

[1615914148.034311] [comp0813:233483:0]            sys.c:618  UCX  ERROR shmget(size=2097152 flags=0xfb0) for mm_recv_desc failed: Operation not permitted, please check shared memory limits by 'ipcs -l'
[1615914148.045443] [comp0813:233481:0]            sys.c:618  UCX  ERROR shmget(size=2097152 flags=0xfb0) for mm_recv_desc failed: Operation not permitted, please check shared memory limits by 'ipcs -l'
[1615914148.055423] [comp0813:233482:0]            sys.c:618  UCX  ERROR shmget(size=2097152 flags=0xfb0) for mm_recv_desc failed: Operation not permitted, please check shared memory limits by 'ipcs -l'
[1615914148.057885] [comp0813:233484:0]            sys.c:618  UCX  ERROR shmget(size=2097152 flags=0xfb0) for mm_recv_desc failed: Operation not permitted, please check shared memory limits by 'ipcs -l'
[1615914148.077224] [comp0813:233481:0]            sys.c:618  UCX  ERROR shmget(size=2097152 flags=0xb80) for ucp_am_bufs failed: Operation not permitted, please check shared memory limits by 'ipcs -l'
[1615914148.077801] [comp0813:233483:0]            sys.c:618  UCX  ERROR shmget(size=2097152 flags=0xb80) for ucp_am_bufs failed: Operation not permitted, please check shared memory limits by 'ipcs -l'
[1615914148.080295] [comp0813:233482:0]            sys.c:618  UCX  ERROR shmget(size=2097152 flags=0xb80) for ucp_am_bufs failed: Operation not permitted, please check shared memory limits by 'ipcs -l'
[1615914148.096244] [comp0813:233484:0]            sys.c:618  UCX  ERROR shmget(size=2097152 flags=0xb80) for ucp_am_bufs failed: Operation not permitted, please check shared memory limits by 'ipcs -l'

Timings for individual modules:

Sum of individual times         ...     1319.860 sec (=  21.998 min)
GTO integral calculation        ...       82.263 sec (=   1.371 min)   6.2 %
SCF iterations                  ...      604.133 sec (=  10.069 min)  45.8 %
SCF Gradient evaluation         ...      320.926 sec (=   5.349 min)  24.3 %
Geometry relaxation             ...       25.198 sec (=   0.420 min)   1.9 %
Analytical frequency calculation...      287.340 sec (=   4.789 min)  21.8 %
                             ****ORCA TERMINATED NORMALLY****
TOTAL RUN TIME: 0 days 0 hours 22 minutes 23 seconds 532 msec
