
                                 *****************
                                 * O   R   C   A *
                                 *****************

           --- An Ab Initio, DFT and Semiempirical electronic structure package ---

                  #######################################################
                  #                        -***-                        #
                  #          Department of theory and spectroscopy      #
                  #               Directorship: Frank Neese             #
                  #        Max Planck Institute fuer Kohlenforschung    #
                  #                Kaiser Wilhelm Platz 1               #
                  #                 D-45470 Muelheim/Ruhr               #
                  #                      Germany                        #
                  #                                                     #
                  #                  All rights reserved                #
                  #                        -***-                        #
                  #######################################################


                         Program Version 4.2.1 -  RELEASE  -


 With contributions from (in alphabetic order):
   Daniel Aravena         : Magnetic Suceptibility
   Michael Atanasov       : Ab Initio Ligand Field Theory (pilot matlab implementation)
   Alexander A. Auer      : GIAO ZORA, VPT2
   Ute Becker             : Parallelization
   Giovanni Bistoni       : ED, misc. LED, open-shell LED, HFLD
   Martin Brehm           : Molecular dynamics
   Dmytro Bykov           : SCF Hessian
   Vijay G. Chilkuri      : MRCI spin determinant printing, contributions to CSF-ICE
   Dipayan Datta          : RHF DLPNO-CCSD density
   Achintya Kumar Dutta   : EOM-CC, STEOM-CC
   Dmitry Ganyushin       : Spin-Orbit,Spin-Spin,Magnetic field MRCI
   Miquel Garcia          : C-PCM Hessian, Gaussian charge scheme
   Yang Guo               : DLPNO-NEVPT2, CIM, IAO-localization
   Andreas Hansen         : Spin unrestricted coupled pair/coupled cluster methods
   Benjamin Helmich-Paris : CASSCF linear response (MC-RPA)
   Lee Huntington         : MR-EOM, pCC
   Robert Izsak           : Overlap fitted RIJCOSX, COSX-SCS-MP3, EOM
   Christian Kollmar      : KDIIS, OOCD, Brueckner-CCSD(T), CCSD density
   Simone Kossmann        : Meta GGA functionals, TD-DFT gradient, OOMP2, MP2 Hessian
   Martin Krupicka        : AUTO-CI
   Lucas Lang             : DCDCAS
   Dagmar Lenk            : GEPOL surface, SMD
   Dimitrios Liakos       : Extrapolation schemes; Compound Job, initial MDCI parallelization
   Dimitrios Manganas     : Further ROCIS development; embedding schemes
   Dimitrios Pantazis     : SARC Basis sets
   Taras Petrenko         : DFT Hessian,TD-DFT gradient, ASA, ECA, R-Raman, ABS, FL, XAS/XES, NRVS
   Peter Pinski           : DLPNO-MP2, DLPNO-MP2 Gradient
   Christoph Reimann      : Effective Core Potentials
   Marius Retegan         : Local ZFS, SOC
   Christoph Riplinger    : Optimizer, TS searches, QM/MM, DLPNO-CCSD(T), (RO)-DLPNO pert. Triples
   Tobias Risthaus        : Range-separated hybrids, TD-DFT gradient, RPA, STAB
   Michael Roemelt        : Original ROCIS implementation
   Masaaki Saitow         : Open-shell DLPNO-CCSD energy and density
   Barbara Sandhoefer     : DKH picture change effects
   Avijit Sen             : IP-ROCIS
   Kantharuban Sivalingam : CASSCF convergence, NEVPT2, FIC-MRCI
   Bernardo de Souza      : ESD, SOC TD-DFT
   Georgi Stoychev        : AutoAux, RI-MP2 NMR
   Willem Van den Heuvel  : Paramagnetic NMR
   Boris Wezisla          : Elementary symmetry handling
   Frank Wennmohs         : Technical directorship


 We gratefully acknowledge several colleagues who have allowed us to
 interface, adapt or use parts of their codes:
   Stefan Grimme, W. Hujo, H. Kruse,             : VdW corrections, initial TS optimization,
                  C. Bannwarth                     DFT functionals, gCP, sTDA/sTD-DF
   Ed Valeev, F. Pavosevic, A. Kumar             : LibInt (2-el integral package), F12 methods
   Garnet Chan, S. Sharma, J. Yang, R. Olivares  : DMRG
   Ulf Ekstrom                                   : XCFun DFT Library
   Mihaly Kallay                                 : mrcc  (arbitrary order and MRCC methods)
   Andreas Klamt, Michael Diedenhofen            : otool_cosmo (COSMO solvation model)
   Jiri Pittner, Ondrej Demel                    : Mk-CCSD
   Frank Weinhold                                : gennbo (NPA and NBO analysis)
   Christopher J. Cramer and Donald G. Truhlar   : smd solvation model
   Lars Goerigk                                  : TD-DFT with DH, B97 family of functionals
   V. Asgeirsson, H. Jonsson                     : NEB implementation
   FAccTs GmbH                                   : IRC, NEB, NEB-TS, Multilevel, MM, QM/MM, CI optimization
   S Lehtola, MJT Oliveira, MAL Marques          : LibXC Library


 Your calculation uses the libint2 library for the computation of 2-el integrals
 For citations please refer to: http://libint.valeyev.net

 Your ORCA version has been built with support for libXC version: 4.2.3
 For citations please refer to: https://tddft.org/programs/libxc/

 This ORCA versions uses:
   CBLAS   interface :  Fast vector & matrix operations
   LAPACKE interface :  Fast linear algebra routines
   SCALAPACK package :  Parallel linear algebra routines




***************************************
The coordinates will be read from file: septamer7.xyz
***************************************


Your calculation utilizes the atom-pairwise dispersion correction
with the Becke-Johnson damping scheme (D3BJ)
Cite in your paper:
S.Grimme, S.Ehrlich, L.Goerigk, J Comput Chem, (2011), 32, 1456–1465 
S.Grimme, J.Antony, S.Ehrlich and H.Krieg, J.Chem.Phys., 132, (2010), 154104 
   

Your calculation utilizes the SMD solvation module
Please cite in your paper:
A.V. Marenich, C.J. Cramer, D.G. Truhlar J. Phys. Chem. B, 113, (2009), 6378 

----- Orbital basis set information -----
Your calculation utilizes the basis: def2-SVP
   F. Weigend and R. Ahlrichs, Phys. Chem. Chem. Phys. 7, 3297 (2005).

================================================================================
                                        WARNINGS
                       Please study these warnings very carefully!
================================================================================


WARNING: Geometry Optimization
  ===> : Switching off AutoStart
         For restart on a previous wavefunction, please use MOREAD

INFO   : the flag for use of LIBINT has been found!

================================================================================
                                       INPUT FILE
================================================================================
NAME = septamer7.inp
|  1> ! PBE0 D3BJ def2-SVP LooseOpt Freq CPCM(water) PAL4
|  2> %geom MaxIter 500 end
|  3> %maxcore 4000
|  4> %cpcm  
|  5>     smd true
|  6>     SMDsolvent "water"
|  7> end
|  8> *xyzfile 0 1 septamer7.xyz
|  9> 
| 10>                          ****END OF INPUT****
================================================================================

                       *****************************
                       * Geometry Optimization Run *
                       *****************************

Geometry optimization settings:
Update method            Update   .... BFGS
Choice of coordinates    CoordSys .... Z-matrix Internals
Initial Hessian          InHess   .... Almoef's Model

Convergence Tolerances:
Energy Change            TolE     ....  3.0000e-05 Eh
Max. Gradient            TolMAXG  ....  2.0000e-03 Eh/bohr
RMS Gradient             TolRMSG  ....  5.0000e-04 Eh/bohr
Max. Displacement        TolMAXD  ....  1.0000e-02 bohr
RMS Displacement         TolRMSD  ....  7.0000e-03 bohr
Strict Convergence                ....  False
------------------------------------------------------------------------------
                        ORCA OPTIMIZATION COORDINATE SETUP
------------------------------------------------------------------------------

The optimization will be done in new redundant internal coordinates
Making redundant internal coordinates   ...  (new redundants) done
Evaluating the initial hessian          ...  (Almloef) done
Evaluating the coordinates              ...  done
Calculating the B-matrix                .... done
Calculating the G-matrix                .... done
Diagonalizing the G-matrix              .... done
The first mode is                       ....  108
The number of degrees of freedom        ....   57

    -----------------------------------------------------------------
                    Redundant Internal Coordinates


    -----------------------------------------------------------------
         Definition                    Initial Value    Approx d2E/dq
    -----------------------------------------------------------------
      1. B(H   1,O   0)                  0.9664         0.507954   
      2. B(H   2,O   0)                  0.9579         0.523900   
      3. B(H   4,O   3)                  0.9745         0.492973   
      4. B(H   5,O   3)                  0.9830         0.477860   
      5. B(H   7,O   6)                  0.9187         0.605091   
      6. B(H   7,H   1)                  2.5105         0.000373   
      7. B(H   7,H   2)                  2.3478         0.000679   
      8. B(H   7,O   0)                  2.0328         0.010102   
      9. B(H   8,O   6)                  0.9477         0.543915   
     10. B(O   9,H   7)                  2.4720         0.002012   
     11. B(H  10,O   9)                  0.9588         0.522234   
     12. B(H  11,H   7)                  2.6335         0.000238   
     13. B(H  11,H   2)                  2.4744         0.000426   
     14. B(H  11,O   0)                  2.6102         0.001211   
     15. B(H  11,O   9)                  0.9413         0.556991   
     16. B(O  12,H   4)                  1.7923         0.024440   
     17. B(H  13,H   4)                  2.2314         0.001041   
     18. B(H  13,O  12)                  0.9776         0.487411   
     19. B(H  14,O  12)                  0.9015         0.644497   
     20. B(H  16,H   5)                  2.0161         0.002296   
     21. B(H  16,O  15)                  1.0271         0.406404   
     22. B(H  16,O   3)                  1.6713         0.038115   
     23. B(H  17,O  15)                  1.0064         0.438435   
     24. B(H  17,O   6)                  1.8512         0.019684   
     25. B(O  18,O   9)                  2.8609         0.002256   
     26. B(O  18,H  13)                  2.3149         0.003584   
     27. B(H  19,O   9)                  2.7310         0.000777   
     28. B(H  19,O  18)                  0.9805         0.482154   
     29. B(H  19,H   7)                  1.7533         0.006030   
     30. B(H  19,O   6)                  1.7995         0.023803   
     31. B(H  19,H  11)                  2.9280         0.000081   
     32. B(H  20,O  18)                  0.9646         0.511168   
     33. B(H  20,H  11)                  2.8105         0.000124   
     34. B(H  20,H  10)                  2.5964         0.000272   
     35. B(H  20,O   9)                  2.3017         0.003762   
     36. A(H   1,O   0,H   7)          108.3440         0.183921   
     37. A(H   1,O   0,H   2)          101.6597         0.321003   
     38. A(H   2,O   0,H   7)           96.8205         0.184587   
     39. A(O   0,H   1,H   7)           50.2258         0.125405   
     40. A(O   0,H   2,H   7)           59.2808         0.130969   
     41. A(H   4,O   3,H   5)          107.5154         0.314688   
     42. A(H   4,O   3,H  16)          117.6255         0.216334   
     43. A(H   5,O   3,H  16)           95.3280         0.215440   
     44. A(O   3,H   4,O  12)          164.0561         0.204149   
     45. A(O  12,H   4,H  13)           25.2270         0.112104   
     46. A(O   3,H   4,H  13)          160.4441         0.134603   
     47. A(O   3,H   5,H  16)           55.6295         0.143161   
     48. A(H  17,O   6,H  19)           92.5111         0.144219   
     49. A(H   8,O   6,H  17)          130.5137         0.201113   
     50. A(H   7,O   6,H   8)          102.7496         0.332433   
     51. A(H   8,O   6,H  19)          125.5520         0.206040   
     52. A(H   7,O   6,H  19)           72.2459         0.208898   
     53. A(H   7,O   6,H  17)          119.8768         0.203851   
     54. A(H   2,H   7,O   6)          149.0032         0.132360   
     55. A(O   0,H   7,H  19)          100.2165         0.117152   
     56. A(H   2,H   7,H  19)          118.4505         0.101361   
     57. A(O   6,H   7,H  19)           77.8168         0.160089   
     58. A(H   1,H   7,H  19)          107.8869         0.099797   
     59. A(O   0,H   7,O   6)          136.0747         0.187755   
     60. A(O   0,H   7,H   1)           21.4302         0.103999   
     61. A(H   1,H   7,O   6)          116.8432         0.126876   
     62. A(O   0,H   7,H   2)           23.8988         0.106171   
     63. A(H   1,H   7,H   2)           35.5663         0.095586   
     64. A(H  11,O   9,O  18)           96.3560         0.168419   
     65. A(H  10,O   9,O  18)          105.9403         0.167269   
     66. A(H  10,O   9,H  11)          101.7721         0.325722   
     67. A(H  13,O  12,H  14)          111.6555         0.329879   
     68. A(H   4,O  12,H  14)          129.7958         0.211351   
     69. A(H   4,O  12,H  13)          103.3848         0.203854   
     70. A(H   4,H  13,O  18)           91.3794         0.103962   
     71. A(O  12,H  13,O  18)          140.0853         0.163377   
     72. A(H   4,H  13,O  12)           51.3882         0.134486   
     73. A(H  16,O  15,H  17)           97.9163         0.300867   
     74. A(O   3,H  16,H   5)           29.0425         0.119558   
     75. A(H   5,H  16,O  15)          150.5142         0.141211   
     76. A(O   3,H  16,O  15)          170.6409         0.210889   
     77. A(O   6,H  17,O  15)          169.7395         0.195774   
     78. A(H  19,O  18,H  20)           94.9489         0.317008   
     79. A(O   9,O  18,H  13)          107.3084         0.114346   
     80. A(O   9,O  18,H  20)           46.2393         0.166891   
     81. A(O   9,O  18,H  19)           72.4913         0.165867   
     82. A(H  13,O  18,H  20)          138.7991         0.164182   
     83. A(H  13,O  18,H  19)          106.4270         0.163194   
     84. A(O   6,H  19,H   7)           29.9373         0.123179   
     85. A(H   7,H  19,O  18)          149.1819         0.156527   
     86. A(O   6,H  19,O  18)          153.1168         0.202890   
     87. D(H   7,H   1,O   0,H   2)    101.3133         0.361032   
     88. D(H   7,H   2,O   0,H   1)   -110.3848         0.426873   
     89. D(O  12,H   4,O   3,H   5)    -38.9505         0.334228   
     90. D(H  13,H   4,O   3,H  16)    -54.0197         0.334228   
     91. D(O  12,H   4,O   3,H  16)   -144.9165         0.334228   
     92. D(H  13,H   4,O   3,H   5)     51.9463         0.334228   
     93. D(H  16,H   5,O   3,H   4)   -121.1832         0.278250   
     94. D(H   2,H   7,O   0,H   1)    104.7199         0.001583   
     95. D(H  19,H   7,O   0,H   1)   -113.2662         0.001583   
     96. D(H   1,H   7,O   6,H  19)   -104.0577         0.805048   
     97. D(O   6,H   7,H   1,O   0)    156.9235         0.001502   
     98. D(H  19,H   7,O   6,H   8)   -123.6078         0.805048   
     99. D(H   2,H   7,O   6,H  17)    -43.4662         0.805048   
    100. D(H   2,H   7,O   6,H  19)   -125.9454         0.805048   
    101. D(H   2,H   7,H   1,O   0)    -42.3495         0.001502   
    102. D(O   0,H   7,O   6,H   8)    144.2482         0.805048   
    103. D(H  19,H   7,H   1,O   0)     71.8113         0.001502   
    104. D(H   1,H   7,H   2,O   0)     37.4123         0.001506   
    105. D(H   1,H   7,O   0,H   2)   -104.7199         0.001583   
    106. D(O   0,H   7,O   6,H  19)    -92.1441         0.805048   
    107. D(O   0,H   7,O   6,H  17)     -9.6648         0.805048   
    108. D(H   1,H   7,O   6,H   8)    132.3345         0.805048   
    109. D(H  19,H   7,H   2,O   0)    -43.5441         0.001506   
    110. D(H   1,H   7,O   6,H  17)    -21.5784         0.805048   
    111. D(H   2,H   7,O   6,H   8)    110.4468         0.805048   
    112. D(H  19,H   7,O   6,H  17)     82.4793         0.805048   
    113. D(O   6,H   7,O   0,H   2)   -134.9935         0.001583   
    114. D(O   6,H   7,H   2,O   0)     72.2924         0.001506   
    115. D(O   6,H   7,O   0,H   1)    -30.2736         0.001583   
    116. D(H  19,H   7,O   0,H   2)    142.0139         0.001583   
    117. D(H  13,O  12,H   4,O   3)    128.2544         0.001855   
    118. D(H  14,O  12,H   4,H  13)    133.7830         0.001855   
    119. D(H  14,O  12,H   4,O   3)    -97.9625         0.001855   
    120. D(O  18,H  13,H   4,O   3)     24.4116         0.001511   
    121. D(O  18,H  13,H   4,O  12)    164.2883         0.001511   
    122. D(O  18,H  13,O  12,H  14)   -168.3120         0.324625   
    123. D(O  12,H  13,H   4,O   3)   -139.8767         0.001511   
    124. D(O  18,H  13,O  12,H   4)    -24.9554         0.324625   
    125. D(H   4,H  13,O  12,H  14)   -143.3566         0.324625   
    126. D(H   5,H  16,O  15,H  17)   -108.7593         0.184622   
    127. D(O   3,H  16,O  15,H  17)    172.3107         0.184622   
    128. D(O  15,H  16,H   5,O   3)   -160.8070         0.001547   
    129. D(H   5,H  16,O   3,H   4)    112.9525         0.002402   
    130. D(O  15,H  16,O   3,H   5)     95.7109         0.002402   
    131. D(O  15,H  16,O   3,H   4)   -151.3365         0.002402   
    132. D(O   6,H  17,O  15,H  16)    -65.3174         0.196975   
    133. D(O  15,H  17,O   6,H  19)     73.3646         0.001727   
    134. D(O  15,H  17,O   6,H   8)   -143.2168         0.001727   
    135. D(O  15,H  17,O   6,H   7)      2.4401         0.001727   
    136. D(O   9,O  18,H  13,H   4)    120.1530         0.001508   
    137. D(O   9,O  18,H  13,O  12)    139.4080         0.001508   
    138. D(H  20,O  18,H  13,O  12)   -178.6536         0.001508   
    139. D(H  19,O  18,H  13,H   4)     43.8421         0.001508   
    140. D(H  19,O  18,H  13,O  12)     63.0972         0.001508   
    141. D(H  13,O  18,O   9,H  11)    -22.3334         0.001501   
    142. D(H  13,O  18,O   9,H  10)     81.8664         0.001501   
    143. D(H  20,O  18,O   9,H  11)   -164.7772         0.001501   
    144. D(H  20,O  18,H  13,H   4)    162.0913         0.001508   
    145. D(H  20,O  18,O   9,H  10)    -60.5774         0.001501   
    146. D(H  19,O  18,O   9,H  11)     79.9231         0.001501   
    147. D(H  19,O  18,O   9,H  10)   -175.8770         0.001501   
    148. D(O  18,H  19,O   6,H   8)    -19.1582         0.001924   
    149. D(O  18,H  19,O   6,H   7)   -112.3683         0.001924   
    150. D(H   7,H  19,O  18,H  13)    116.0820         0.397413   
    151. D(H   7,H  19,O  18,H  20)    -28.2971         0.397413   
    152. D(O   6,H  19,O  18,O   9)     76.9190         0.397413   
    153. D(O   6,H  19,O  18,H  20)     35.9687         0.397413   
    154. D(O   6,H  19,H   7,H   2)    151.6932         0.002057   
    155. D(O   6,H  19,H   7,H   1)    114.5658         0.002057   
    156. D(O   6,H  19,H   7,O   0)    135.2186         0.002057   
    157. D(O  18,H  19,H   7,H   2)    -83.0128         0.002057   
    158. D(O  18,H  19,H   7,H   1)   -120.1402         0.002057   
    159. D(O  18,H  19,H   7,O   0)    -99.4873         0.002057   
    160. D(O   6,H  19,O  18,H  13)   -179.6523         0.397413   
    161. D(O  18,H  19,H   7,O   6)    125.2940         0.002057   
    162. D(H   7,H  19,O   6,H  17)   -120.6311         0.001924   
    163. D(H   7,H  19,O   6,H   8)     93.2102         0.001924   
    164. D(H   7,H  19,O  18,O   9)     12.6533         0.397413   
    165. D(O  18,H  19,O   6,H  17)    127.0006         0.001924   
    -----------------------------------------------------------------

Number of atoms                         .... 21
Number of degrees of freedom            .... 165

         *************************************************************
         *                GEOMETRY OPTIMIZATION CYCLE   1            *
         *************************************************************
---------------------------------
CARTESIAN COORDINATES (ANGSTROEM)
---------------------------------
  O      7.274630    4.418810    3.839960
  H      7.890590    4.728740    4.517000
  H      7.792430    3.742020    3.402360
  O      5.123840    7.671090    5.672860
  H      4.574490    6.941540    5.332810
  H      4.719700    8.513250    5.366770
  O      7.416010    6.660260    2.220580
  H      7.281350    5.755740    2.308690
  H      7.864370    6.724860    1.388110
  O      6.002810    4.093200    1.000200
  H      5.353680    3.685870    0.423980
  H      5.944080    3.552280    1.768280
  O      3.197130    5.915310    4.820910
  H      3.436910    5.652450    3.910360
  H      2.779870    5.248110    5.260830
  O      7.560020    8.154440    4.639890
  H      6.603100    7.933690    4.940640
  H      7.520840    7.728220    3.729020
  O      4.720710    6.387700    2.129930
  H      5.650970    6.387060    2.439910
  H      4.933240    6.118480    1.228330

----------------------------
CARTESIAN COORDINATES (A.U.)
----------------------------
  NO LB      ZA    FRAG     MASS         X           Y           Z
   0 O     8.0000    0    15.999   13.747058    8.350341    7.256473
   1 H     1.0000    0     1.008   14.911054    8.936024    8.535893
   2 H     1.0000    0     1.008   14.725559    7.071393    6.429529
   3 O     8.0000    0    15.999    9.682654   14.496259   10.720152
   4 H     1.0000    0     1.008    8.644533   13.117610   10.077550
   5 H     1.0000    0     1.008    8.918940   16.087711   10.141726
   6 O     8.0000    0    15.999   14.014228   12.586067    4.196288
   7 H     1.0000    0     1.008   13.759757   10.876772    4.362792
   8 H     1.0000    0     1.008   14.861506   12.708144    2.623148
   9 O     8.0000    0    15.999   11.343667    7.735027    1.890104
  10 H     1.0000    0     1.008   10.116989    6.965285    0.801206
  11 H     1.0000    0     1.008   11.232683    6.712836    3.341565
  12 O     8.0000    0    15.999    6.041700   11.178316    9.110200
  13 H     1.0000    0     1.008    6.494819   10.681582    7.389509
  14 H     1.0000    0     1.008    5.253193    9.917491    9.941528
  15 O     8.0000    0    15.999   14.286367   15.409658    8.768121
  16 H     1.0000    0     1.008   12.478051   14.992501    9.336457
  17 H     1.0000    0     1.008   14.212328   14.604219    7.046827
  18 O     8.0000    0    15.999    8.920849   12.071004    4.024984
  19 H     1.0000    0     1.008   10.678786   12.069794    4.610762
  20 H     1.0000    0     1.008    9.322473   11.562252    2.321207

--------------------------------
INTERNAL COORDINATES (ANGSTROEM)
--------------------------------
 O      0   0   0     0.000000000000     0.00000000     0.00000000
 H      1   0   0     0.966357329408     0.00000000     0.00000000
 H      1   2   0     0.957943267683   101.65972749     0.00000000
 O      2   1   3     4.200992909373    89.86279830   176.01430477
 H      4   2   1     0.974506350672    75.57662808    29.31070749
 H      4   2   1     0.982982041189   141.73476077   289.19035696
 O      1   2   3     2.768840549996    96.75246784   251.97620063
 H      7   1   2     0.918723635322    30.61755150   151.19342372
 H      7   1   2     0.947737384775   126.37454775   106.13931923
 O      8   7   1     2.472013321829   133.40817393   153.15130846
 H     10   8   7     0.958810186742   162.55050143   333.94806396
 H     10   8   7     0.941270707979    89.24561913   204.26524605
 O      5   4   2     1.792291882618   164.05613880   180.78973072
 H     13   5   4     0.977594563457   103.38482014   128.25444541
 H     13   5   4     0.901549418501   129.79576205   262.03749541
 O      4   2   1     2.689912124178    54.81100839   243.51354247
 H     16   4   2     1.027072057550     5.79912504    68.93127828
 H     16   4   2     1.006420745861   103.66240632    61.09259010
 O     14  13   5     2.314879259789   140.08529091   335.04463161
 H     19  14  13     0.980546621839   106.42704125    63.09717033
 H     19  14  13     0.964640331574   138.79905423   181.34636401

---------------------------
INTERNAL COORDINATES (A.U.)
---------------------------
 O      0   0   0     0.000000000000     0.00000000     0.00000000
 H      1   0   0     1.826150700088     0.00000000     0.00000000
 H      1   2   0     1.810250427755   101.65972749     0.00000000
 O      2   1   3     7.938726089260    89.86279830   176.01430477
 H      4   2   1     1.841550118537    75.57662808    29.31070749
 H      4   2   1     1.857566852410   141.73476077   289.19035696
 O      1   2   3     5.232350347988    96.75246784   251.97620063
 H      7   1   2     1.736136063520    30.61755150   151.19342372
 H      7   1   2     1.790964104103   126.37454775   106.13931923
 O      8   7   1     4.671428177662   133.40817393   153.15130846
 H     10   8   7     1.811888667356   162.55050143   333.94806396
 H     10   8   7     1.778743855963    89.24561913   204.26524605
 O      5   4   2     3.386940810199   164.05613880   180.78973072
 H     13   5   4     1.847385994943   103.38482014   128.25444541
 H     13   5   4     1.703681497163   129.79576205   262.03749541
 O      4   2   1     5.083197239011    54.81100839   243.51354247
 H     16   4   2     1.940884908573     5.79912504    68.93127828
 H     16   4   2     1.901859585175   103.66240632    61.09259010
 O     14  13   5     4.374487834095   140.08529091   335.04463161
 H     19  14  13     1.852964576817   106.42704125    63.09717033
 H     19  14  13     1.822906044411   138.79905423   181.34636401

---------------------
BASIS SET INFORMATION
---------------------
There are 2 groups of distinct atoms

 Group   1 Type O   : 7s4p1d contracted to 3s2p1d pattern {511/31/1}
 Group   2 Type H   : 4s1p contracted to 2s1p pattern {31/1}

Atom   0O    basis set group =>   1
Atom   1H    basis set group =>   2
Atom   2H    basis set group =>   2
Atom   3O    basis set group =>   1
Atom   4H    basis set group =>   2
Atom   5H    basis set group =>   2
Atom   6O    basis set group =>   1
Atom   7H    basis set group =>   2
Atom   8H    basis set group =>   2
Atom   9O    basis set group =>   1
Atom  10H    basis set group =>   2
Atom  11H    basis set group =>   2
Atom  12O    basis set group =>   1
Atom  13H    basis set group =>   2
Atom  14H    basis set group =>   2
Atom  15O    basis set group =>   1
Atom  16H    basis set group =>   2
Atom  17H    basis set group =>   2
Atom  18O    basis set group =>   1
Atom  19H    basis set group =>   2
Atom  20H    basis set group =>   2
[1615913060.270510] [comp0813:193401:0]            sys.c:618  UCX  ERROR shmget(size=2097152 flags=0xfb0) for mm_recv_desc failed: Operation not permitted, please check shared memory limits by 'ipcs -l'
[1615913060.282316] [comp0813:193397:0]            sys.c:618  UCX  ERROR shmget(size=2097152 flags=0xfb0) for mm_recv_desc failed: Operation not permitted, please check shared memory limits by 'ipcs -l'
[1615913060.294348] [comp0813:193403:0]            sys.c:618  UCX  ERROR shmget(size=2097152 flags=0xfb0) for mm_recv_desc failed: Operation not permitted, please check shared memory limits by 'ipcs -l'
[1615913060.294531] [comp0813:193398:0]            sys.c:618  UCX  ERROR shmget(size=2097152 flags=0xfb0) for mm_recv_desc failed: Operation not permitted, please check shared memory limits by 'ipcs -l'
[1615913060.313073] [comp0813:193401:0]            sys.c:618  UCX  ERROR shmget(size=2097152 flags=0xb80) for ucp_am_bufs failed: Operation not permitted, please check shared memory limits by 'ipcs -l'
[1615913060.314004] [comp0813:193403:0]            sys.c:618  UCX  ERROR shmget(size=2097152 flags=0xb80) for ucp_am_bufs failed: Operation not permitted, please check shared memory limits by 'ipcs -l'
[1615913060.314474] [comp0813:193397:0]            sys.c:618  UCX  ERROR shmget(size=2097152 flags=0xb80) for ucp_am_bufs failed: Operation not permitted, please check shared memory limits by 'ipcs -l'
[1615913060.320896] [comp0813:193398:0]            sys.c:618  UCX  ERROR shmget(size=2097152 flags=0xb80) for ucp_am_bufs failed: Operation not permitted, please check shared memory limits by 'ipcs -l'


           ************************************************************
           *        Program running with 4 parallel MPI-processes     *
           *              working on a common directory               *
           ************************************************************
------------------------------------------------------------------------------
                           ORCA GTO INTEGRAL CALCULATION
------------------------------------------------------------------------------

                         BASIS SET STATISTICS AND STARTUP INFO

 # of primitive gaussian shells          ...  154
 # of primitive gaussian functions       ...  266
 # of contracted shells                  ...   84
 # of contracted basis functions         ...  168
 Highest angular momentum                ...    2
 Maximum contraction depth               ...    5
 Integral package used                   ... LIBINT
 Integral threshhold            Thresh   ...  2.500e-11
 Primitive cut-off              TCut     ...  2.500e-12


------------------------------ INTEGRAL EVALUATION ----------------------------


 * One electron integrals 
 Pre-screening matrix                    ... done
 Shell pair data                         ... done (   0.001 sec)

[1615913061.488499] [comp0813:193466:0]            sys.c:618  UCX  ERROR shmget(size=2097152 flags=0xfb0) for mm_recv_desc failed: Operation not permitted, please check shared memory limits by 'ipcs -l'
[1615913061.503195] [comp0813:193468:0]            sys.c:618  UCX  ERROR shmget(size=2097152 flags=0xfb0) for mm_recv_desc failed: Operation not permitted, please check shared memory limits by 'ipcs -l'
[1615913061.522959] [comp0813:193469:0]            sys.c:618  UCX  ERROR shmget(size=2097152 flags=0xfb0) for mm_recv_desc failed: Operation not permitted, please check shared memory limits by 'ipcs -l'
[1615913061.531342] [comp0813:193467:0]            sys.c:618  UCX  ERROR shmget(size=2097152 flags=0xfb0) for mm_recv_desc failed: Operation not permitted, please check shared memory limits by 'ipcs -l'
[1615913061.545277] [comp0813:193468:0]            sys.c:618  UCX  ERROR shmget(size=2097152 flags=0xb80) for ucp_am_bufs failed: Operation not permitted, please check shared memory limits by 'ipcs -l'
[1615913061.545320] [comp0813:193466:0]            sys.c:618  UCX  ERROR shmget(size=2097152 flags=0xb80) for ucp_am_bufs failed: Operation not permitted, please check shared memory limits by 'ipcs -l'


           ************************************************************
           *        Program running with 4 parallel MPI-processes     *
           *              working on a common directory               *
           ************************************************************
[1615913061.548304] [comp0813:193467:0]            sys.c:618  UCX  ERROR shmget(size=2097152 flags=0xb80) for ucp_am_bufs failed: Operation not permitted, please check shared memory limits by 'ipcs -l'
[1615913061.548941] [comp0813:193469:0]            sys.c:618  UCX  ERROR shmget(size=2097152 flags=0xb80) for ucp_am_bufs failed: Operation not permitted, please check shared memory limits by 'ipcs -l'
-------------------------------------------------------------------------------
                                 ORCA SCF
-------------------------------------------------------------------------------

------------
SCF SETTINGS
------------
Hamiltonian:
 Density Functional     Method          .... DFT(GTOs)
 Exchange Functional    Exchange        .... PBE
   PBE kappa parameter   XKappa         ....  0.804000
   PBE mue parameter    XMuePBE         ....  0.219520
 Correlation Functional Correlation     .... PBE
   PBE beta parameter  CBetaPBE         ....  0.066725
 LDA part of GGA corr.  LDAOpt          .... PW91-LDA
 Gradients option       PostSCFGGA      .... off
 Hybrid DFT is turned on
   Fraction HF Exchange ScalHFX         ....  0.250000
   Scaling of DF-GGA-X  ScalDFX         ....  0.750000
   Scaling of DF-GGA-C  ScalDFC         ....  1.000000
   Scaling of DF-LDA-C  ScalLDAC        ....  1.000000
   Perturbative correction              ....  0.000000
   Density functional embedding theory  .... OFF
   NL short-range parameter             ....  6.900000


General Settings:
 Integral files         IntName         .... septamer7
 Hartree-Fock type      HFTyp           .... RHF
 Total Charge           Charge          ....    0
 Multiplicity           Mult            ....    1
 Number of Electrons    NEL             ....   70
 Basis Dimension        Dim             ....  168
 Nuclear Repulsion      ENuc            ....    371.1932843568 Eh

Convergence Acceleration:
 DIIS                   CNVDIIS         .... on
   Start iteration      DIISMaxIt       ....    12
   Startup error        DIISStart       ....  0.200000
   # of expansion vecs  DIISMaxEq       ....     5
   Bias factor          DIISBfac        ....   1.050
   Max. coefficient     DIISMaxC        ....  10.000
 Newton-Raphson         CNVNR           .... off
 SOSCF                  CNVSOSCF        .... on
   Start iteration      SOSCFMaxIt      ....   150
   Startup grad/error   SOSCFStart      ....  0.003300
 Level Shifting         CNVShift        .... on
   Level shift para.    LevelShift      ....    0.2500
   Turn off err/grad.   ShiftErr        ....    0.0010
 Zerner damping         CNVZerner       .... off
 Static damping         CNVDamp         .... on
   Fraction old density DampFac         ....    0.7000
   Max. Damping (<1)    DampMax         ....    0.9800
   Min. Damping (>=0)   DampMin         ....    0.0000
   Turn off err/grad.   DampErr         ....    0.1000
 Fernandez-Rico         CNVRico         .... off

SCF Procedure:
 Maximum # iterations   MaxIter         ....   125
 SCF integral mode      SCFMode         .... Direct
   Integral package                     .... LIBINT
 Reset frequency        DirectResetFreq ....    20
 Integral Threshold     Thresh          ....  2.500e-11 Eh
 Primitive CutOff       TCut            ....  2.500e-12 Eh

Convergence Tolerance:
 Convergence Check Mode ConvCheckMode   .... Total+1el-Energy
 Convergence forced     ConvForced      .... 0
 Energy Change          TolE            ....  1.000e-08 Eh
 1-El. energy change                    ....  1.000e-05 Eh
 Orbital Gradient       TolG            ....  1.000e-05
 Orbital Rotation angle TolX            ....  1.000e-05
 DIIS Error             TolErr          ....  5.000e-07


Diagonalization of the overlap matrix:
Smallest eigenvalue                        ... 2.008e-02
Time for diagonalization                   ...    0.007 sec
Threshold for overlap eigenvalues          ... 1.000e-08
Number of eigenvalues below threshold      ... 0
Time for construction of square roots      ...    0.002 sec
Total time needed                          ...    0.010 sec

-------------------
DFT GRID GENERATION
-------------------

General Integration Accuracy     IntAcc      ...  4.340
Radial Grid Type                 RadialGrid  ... Gauss-Chebyshev
Angular Grid (max. acc.)         AngularGrid ... Lebedev-110
Angular grid pruning method      GridPruning ... 3 (G Style)
Weight generation scheme         WeightScheme... Becke
Basis function cutoff            BFCut       ...    1.0000e-11
Integration weight cutoff        WCut        ...    1.0000e-14
Grids for H and He will be reduced by one unit

# of grid points (after initial pruning)     ...  23128 (   0.0 sec)
# of grid points (after weights+screening)   ...  21601 (   0.0 sec)
nearest neighbour list constructed           ...    0.0 sec
Grid point re-assignment to atoms done       ...    0.0 sec
Grid point division into batches done        ...    0.0 sec
Reduced shell lists constructed in    0.1 sec

Total number of grid points                  ...    21601
Total number of batches                      ...      348
Average number of points per batch           ...       62
Average number of grid points per atom       ...     1029
Average number of shells per batch           ...    48.90 (58.21%)
Average number of basis functions per batch  ...    86.33 (51.39%)
Average number of large shells per batch     ...    33.33 (68.16%)
Average number of large basis fcns per batch ...    56.69 (65.67%)
Maximum spatial batch extension              ...  15.08, 12.83, 19.34 au
Average spatial batch extension              ...   0.94,  0.82,  0.98 au

Time for grid setup =    0.124 sec

------------------------------
INITIAL GUESS: MODEL POTENTIAL
------------------------------
Loading Hartree-Fock densities                     ... done
Calculating cut-offs                               ... done
Setting up the integral package                    ... done
Initializing the effective Hamiltonian             ... done
Starting the Coulomb interaction                   ... done (   0.0 sec)
Reading the grid                                   ... done
Mapping shells                                     ... done
Starting the XC term evaluation                    ... done (   0.0 sec)
  promolecular density results
     # of electrons  =     69.984156814
     EX              =    -61.185167159
     EC              =     -2.260843810
     EX+EC           =    -63.446010969
Transforming the Hamiltonian                       ... done (   0.0 sec)
Diagonalizing the Hamiltonian                      ... done (   0.0 sec)
Back transforming the eigenvectors                 ... done (   0.0 sec)
Now organizing SCF variables                       ... done
                      ------------------
                      INITIAL GUESS DONE (   0.3 sec)
                      ------------------

--------------------
CPCM SOLVATION MODEL
--------------------
CPCM parameters:
  Epsilon                                         ...      78.3550
  Refrac                                          ...       1.3300
  Rsolv                                           ...       1.3000
  Surface type                                    ...    GEPOL SES
  Epsilon function type                           ...         CPCM
Solvent:                                     ... WATER
SMD-CDS solvent descriptors:
  Soln                                       ...    1.3328
  Soln25                                     ...    1.3323
  Sola                                       ...    0.0000
  Solb                                       ...    0.0000
  Solg                                       ...    0.0000
  Solc                                       ...    0.0000
  Solh                                       ...    0.0000
Radii:
 Radius for O  used is    2.8724 Bohr (=   1.5200 Ang.)
 Radius for H  used is    2.2677 Bohr (=   1.2000 Ang.)
Calculating surface                               ...        done! (  0.2s)
GEPOL surface points                              ...         1311
GEPOL Volume                                      ...     981.1749
GEPOL Surface-area                                ...     641.7271
Calculating surface distance matrix               ...        done! (  0.0s)
Performing Cholesky decomposition & store         ...        done! (  0.1s)
Overall time for CPCM initialization              ...                 0.3s
--------------
SCF ITERATIONS
--------------
ITER       Energy         Delta-E        Max-DP      RMS-DP      [F,P]     Damp
               ***  Starting incremental Fock matrix formation  ***
  0   -533.5841993350   0.000000000000 0.08401295  0.00296263  0.2956275 0.7000
  1   -533.8128816845  -0.228682349560 0.04887538  0.00172144  0.1348628 0.7000
                               ***Turning on DIIS***
  2   -533.8971901251  -0.084308440579 0.06218312  0.00216666  0.0421541 0.0000
  3   -534.0332143746  -0.136024249470 0.02988761  0.00110848  0.0714485 0.0000
  4   -534.0612901522  -0.028075777577 0.00561369  0.00022897  0.0122990 0.0000
                      *** Initiating the SOSCF procedure ***
                           *** Shutting down DIIS ***
                      *** Re-Reading the Fockian *** 
                      *** Removing any level shift *** 
ITER      Energy       Delta-E        Grad      Rot      Max-DP    RMS-DP
  5   -534.06221713  -0.0009269731  0.000657  0.000657  0.001866  0.000068
               *** Restarting incremental Fock matrix formation ***
  6   -534.06226188  -0.0000447540  0.000362  0.000539  0.001766  0.000047
  7   -534.06226233  -0.0000004525  0.000407  0.000218  0.001022  0.000020
  8   -534.06226877  -0.0000064394  0.000027  0.000029  0.000087  0.000002
  9   -534.06226876   0.0000000070  0.000039  0.000015  0.000052  0.000001
                  ***Gradient check signals convergence***
              ***Rediagonalizing the Fockian in SOSCF/NRSCF***

               *****************************************************
               *                     SUCCESS                       *
               *           SCF CONVERGED AFTER  10 CYCLES          *
               *****************************************************

Setting up the final grid:

General Integration Accuracy     IntAcc      ...  4.670
Radial Grid Type                 RadialGrid  ... Gauss-Chebyshev
Angular Grid (max. acc.)         AngularGrid ... Lebedev-302
Angular grid pruning method      GridPruning ... 3 (G Style)
Weight generation scheme         WeightScheme... Becke
Basis function cutoff            BFCut       ...    1.0000e-11
Integration weight cutoff        WCut        ...    1.0000e-14
Grids for H and He will be reduced by one unit

# of grid points (after initial pruning)     ...  91000 (   0.0 sec)
# of grid points (after weights+screening)   ...  83697 (   0.1 sec)
nearest neighbour list constructed           ...    0.0 sec
Grid point re-assignment to atoms done       ...    0.0 sec
Grid point division into batches done        ...    0.3 sec
Reduced shell lists constructed in    0.4 sec

Total number of grid points                  ...    83697
Total number of batches                      ...     1316
Average number of points per batch           ...       63
Average number of grid points per atom       ...     3986
Average number of shells per batch           ...    43.88 (52.24%)
Average number of basis functions per batch  ...    76.34 (45.44%)
Average number of large shells per batch     ...    29.47 (67.16%)
Average number of large basis fcns per batch ...    49.78 (65.22%)
Maximum spatial batch extension              ...  13.25, 12.85, 13.89 au
Average spatial batch extension              ...   0.59,  0.57,  0.61 au

Final grid set up in    0.5 sec
Final integration                            ... done (   0.2 sec)
Change in XC energy                          ...     0.000699807
Integrated number of electrons               ...    70.000043684
Previous integrated no of electrons          ...    70.002086484

SMD CDS free energy correction energy :                 6.32245     Kcal/mol
Total Energy after SMD CDS correction =              -534.051493515 Eh

----------------
TOTAL SCF ENERGY
----------------

Total Energy       :         -534.05149352 Eh          -14532.27995 eV

Components:
Nuclear Repulsion  :          371.19328436 Eh           10100.68278 eV
Electronic Energy  :         -905.24477787 Eh          -24632.96272 eV
One Electron Energy:        -1475.83262255 Eh          -40159.44733 eV
Two Electron Energy:          570.58784468 Eh           15526.48461 eV
CPCM Dielectric    :           -0.07572780 Eh              -2.06066 eV
SMD CDS (Gcds)     :            0.01007546 Eh               0.27417 eV

Virial components:
Potential Energy   :        -1064.51046339 Eh          -28966.80235 eV
Kinetic Energy     :          530.45896987 Eh           14434.52241 eV
Virial Ratio       :            2.00677248


DFT components:
N(Alpha)           :       35.000021841849 electrons
N(Beta)            :       35.000021841849 electrons
N(Total)           :       70.000043683699 electrons
E(X)               :      -46.919087062348 Eh       
E(C)               :       -2.342110363490 Eh       
E(XC)              :      -49.261197425838 Eh       
DFET-embed. en.    :        0.000000000000 Eh       
CPCM Solvation Model Properties:
Surface-charge          :           -0.02683611
Charge-correction       :           -0.00013257 Eh              -0.00361 eV
Free-energy (cav+disp)  :            0.00404216 Eh               0.10999 eV
Corrected G(solv)       :         -534.04758393 Eh          -14532.17356 eV

---------------
SCF CONVERGENCE
---------------

  Last Energy change         ...   -2.2404e-08  Tolerance :   1.0000e-08
  Last MAX-Density change    ...    2.3712e-06  Tolerance :   1.0000e-07
  Last RMS-Density change    ...    7.4805e-08  Tolerance :   5.0000e-09
  Last Orbital Gradient      ...    5.5816e-07  Tolerance :   1.0000e-05
  Last Orbital Rotation      ...    1.0516e-06  Tolerance :   1.0000e-05

             **** THE GBW FILE WAS UPDATED (septamer7.gbw) ****
             **** DENSITY FILE WAS UPDATED (septamer7.scfp) ****
             **** ENERGY FILE WAS UPDATED (septamer7.en.tmp) ****
             **** THE GBW FILE WAS UPDATED (septamer7.gbw) ****
             **** DENSITY FILE WAS UPDATED (septamer7.scfp) ****
----------------
ORBITAL ENERGIES
----------------

  NO   OCC          E(Eh)            E(eV) 
   0   2.0000     -19.213745      -522.8326 
   1   2.0000     -19.205303      -522.6029 
   2   2.0000     -19.204137      -522.5711 
   3   2.0000     -19.203142      -522.5441 
   4   2.0000     -19.197958      -522.4030 
   5   2.0000     -19.187091      -522.1073 
   6   2.0000     -19.162425      -521.4361 
   7   2.0000      -1.047624       -28.5073 
   8   2.0000      -1.028546       -27.9882 
   9   2.0000      -1.018028       -27.7019 
  10   2.0000      -1.015535       -27.6341 
  11   2.0000      -1.008551       -27.4441 
  12   2.0000      -0.997175       -27.1345 
  13   2.0000      -0.955605       -26.0033 
  14   2.0000      -0.562862       -15.3163 
  15   2.0000      -0.562537       -15.3074 
  16   2.0000      -0.537965       -14.6388 
  17   2.0000      -0.535773       -14.5791 
  18   2.0000      -0.522299       -14.2125 
  19   2.0000      -0.498338       -13.5605 
  20   2.0000      -0.486880       -13.2487 
  21   2.0000      -0.434420       -11.8212 
  22   2.0000      -0.417663       -11.3652 
  23   2.0000      -0.410110       -11.1597 
  24   2.0000      -0.402876       -10.9628 
  25   2.0000      -0.393772       -10.7151 
  26   2.0000      -0.376305       -10.2398 
  27   2.0000      -0.365399        -9.9430 
  28   2.0000      -0.337794        -9.1918 
  29   2.0000      -0.329112        -8.9556 
  30   2.0000      -0.325401        -8.8546 
  31   2.0000      -0.318985        -8.6800 
  32   2.0000      -0.314425        -8.5559 
  33   2.0000      -0.298082        -8.1112 
  34   2.0000      -0.284213        -7.7338 
  35   0.0000       0.044561         1.2126 
  36   0.0000       0.080898         2.2014 
  37   0.0000       0.098141         2.6705 
  38   0.0000       0.106869         2.9081 
  39   0.0000       0.118882         3.2349 
  40   0.0000       0.151550         4.1239 
  41   0.0000       0.163368         4.4455 
  42   0.0000       0.181331         4.9343 
  43   0.0000       0.190988         5.1971 
  44   0.0000       0.206425         5.6171 
  45   0.0000       0.232907         6.3377 
  46   0.0000       0.237140         6.4529 
  47   0.0000       0.271219         7.3802 
  48   0.0000       0.298636         8.1263 
  49   0.0000       0.516891        14.0653 
  50   0.0000       0.524931        14.2841 
  51   0.0000       0.547848        14.9077 
  52   0.0000       0.583432        15.8760 
  53   0.0000       0.608439        16.5565 
  54   0.0000       0.616291        16.7701 
  55   0.0000       0.638175        17.3656 
  56   0.0000       0.641367        17.4525 
  57   0.0000       0.660617        17.9763 
  58   0.0000       0.670675        18.2500 
  59   0.0000       0.678544        18.4641 
  60   0.0000       0.696913        18.9640 
  61   0.0000       0.701195        19.0805 
  62   0.0000       0.747759        20.3476 
  63   0.0000       0.855467        23.2784 
  64   0.0000       0.886371        24.1194 
  65   0.0000       0.896130        24.3849 
  66   0.0000       0.915331        24.9074 
  67   0.0000       0.930337        25.3157 
  68   0.0000       0.941800        25.6277 
  69   0.0000       0.959188        26.1008 
  70   0.0000       0.969773        26.3889 
  71   0.0000       0.987152        26.8618 
  72   0.0000       0.992731        27.0136 
  73   0.0000       1.003062        27.2947 
  74   0.0000       1.017731        27.6939 
  75   0.0000       1.027124        27.9495 
  76   0.0000       1.028561        27.9886 
  77   0.0000       1.063164        28.9302 
  78   0.0000       1.068809        29.0838 
  79   0.0000       1.087318        29.5874 
  80   0.0000       1.109378        30.1877 
  81   0.0000       1.120268        30.4840 
  82   0.0000       1.140965        31.0472 
  83   0.0000       1.158357        31.5205 
  84   0.0000       1.167281        31.7633 
  85   0.0000       1.197442        32.5841 
  86   0.0000       1.247082        33.9348 
  87   0.0000       1.256138        34.1813 
  88   0.0000       1.271284        34.5934 
  89   0.0000       1.293244        35.1909 
  90   0.0000       1.316413        35.8214 
  91   0.0000       1.342381        36.5280 
  92   0.0000       1.352674        36.8081 
  93   0.0000       1.375333        37.4247 
  94   0.0000       1.387170        37.7468 
  95   0.0000       1.394647        37.9503 
  96   0.0000       1.414138        38.4806 
  97   0.0000       1.438829        39.1525 
  98   0.0000       1.448326        39.4110 
  99   0.0000       1.452581        39.5267 
 100   0.0000       1.459209        39.7071 
 101   0.0000       1.498740        40.7828 
 102   0.0000       1.508930        41.0601 
 103   0.0000       1.534954        41.7682 
 104   0.0000       1.546619        42.0856 
 105   0.0000       1.580495        43.0074 
 106   0.0000       1.599320        43.5197 
 107   0.0000       1.628485        44.3133 
 108   0.0000       1.643677        44.7267 
 109   0.0000       1.667231        45.3677 
 110   0.0000       1.686447        45.8906 
 111   0.0000       1.723197        46.8906 
 112   0.0000       1.797755        48.9194 
 113   0.0000       1.826089        49.6904 
 114   0.0000       1.841494        50.1096 
 115   0.0000       1.872184        50.9447 
 116   0.0000       1.877484        51.0889 
 117   0.0000       1.945620        52.9430 
 118   0.0000       1.980241        53.8851 
 119   0.0000       2.201195        59.8976 
 120   0.0000       2.244382        61.0727 
 121   0.0000       2.246126        61.1202 
 122   0.0000       2.265835        61.6565 
 123   0.0000       2.269975        61.7692 
 124   0.0000       2.282502        62.1100 
 125   0.0000       2.292182        62.3734 
 126   0.0000       2.333917        63.5091 
 127   0.0000       2.345216        63.8166 
 128   0.0000       2.397098        65.2284 
 129   0.0000       2.405855        65.4667 
 130   0.0000       2.414238        65.6948 
 131   0.0000       2.444421        66.5161 
 132   0.0000       2.539570        69.1052 
 133   0.0000       2.921658        79.5024 
 134   0.0000       2.931188        79.7617 
 135   0.0000       2.972492        80.8856 
 136   0.0000       2.977112        81.0113 
 137   0.0000       2.980894        81.1143 
 138   0.0000       2.985915        81.2509 
 139   0.0000       2.987311        81.2889 
 140   0.0000       2.997553        81.5676 
 141   0.0000       3.001660        81.6793 
 142   0.0000       3.019066        82.1530 
 143   0.0000       3.023247        82.2667 
 144   0.0000       3.039576        82.7111 
 145   0.0000       3.075950        83.7009 
 146   0.0000       3.082889        83.8897 
 147   0.0000       3.163768        86.0905 
 148   0.0000       3.172765        86.3353 
 149   0.0000       3.196000        86.9676 
 150   0.0000       3.203649        87.1757 
 151   0.0000       3.215994        87.5116 
 152   0.0000       3.239540        88.1524 
 153   0.0000       3.272993        89.0627 
 154   0.0000       3.492387        95.0327 
 155   0.0000       3.503683        95.3401 
 156   0.0000       3.524209        95.8986 
 157   0.0000       3.556960        96.7898 
 158   0.0000       3.567149        97.0671 
 159   0.0000       3.613004        98.3149 
 160   0.0000       3.636077        98.9427 
 161   0.0000       3.827772       104.1590 
 162   0.0000       3.845129       104.6313 
 163   0.0000       3.865318       105.1806 
 164   0.0000       3.892252       105.9136 
 165   0.0000       3.902141       106.1826 
 166   0.0000       3.938928       107.1837 
 167   0.0000       3.970730       108.0491 

                    ********************************
                    * MULLIKEN POPULATION ANALYSIS *
                    ********************************

-----------------------
MULLIKEN ATOMIC CHARGES
-----------------------
   0 O :   -0.331632
   1 H :    0.198582
   2 H :    0.201539
   3 O :   -0.372947
   4 H :    0.176336
   5 H :    0.221082
   6 O :   -0.277533
   7 H :    0.129480
   8 H :    0.206020
   9 O :   -0.336373
  10 H :    0.195757
  11 H :    0.176313
  12 O :   -0.331853
  13 H :    0.197946
  14 H :    0.182845
  15 O :   -0.524442
  16 H :    0.175814
  17 H :    0.176327
  18 O :   -0.380316
  19 H :    0.147479
  20 H :    0.169578
Sum of atomic charges:    0.0000000

--------------------------------
MULLIKEN REDUCED ORBITAL CHARGES
--------------------------------
  0 O s       :     3.684945  s :     3.684945
      pz      :     1.504003  p :     4.637257
      px      :     1.569579
      py      :     1.563675
      dz2     :     0.000590  d :     0.009431
      dxz     :     0.003845
      dyz     :     0.000515
      dx2y2   :     0.001289
      dxy     :     0.003192
  1 H s       :     0.730165  s :     0.730165
      pz      :     0.027992  p :     0.071253
      px      :     0.023563
      py      :     0.019697
  2 H s       :     0.726037  s :     0.726037
      pz      :     0.022774  p :     0.072424
      px      :     0.021283
      py      :     0.028368
  3 O s       :     3.674690  s :     3.674690
      pz      :     1.842194  p :     4.690475
      px      :     1.622744
      py      :     1.225537
      dz2     :     0.000719  d :     0.007782
      dxz     :     0.001592
      dyz     :     0.001900
      dx2y2   :     0.000223
      dxy     :     0.003347
  4 H s       :     0.750247  s :     0.750247
      pz      :     0.018474  p :     0.073417
      px      :     0.023805
      py      :     0.031137
  5 H s       :     0.711221  s :     0.711221
      pz      :     0.017368  p :     0.067697
      px      :     0.017770
      py      :     0.032559
  6 O s       :     3.643801  s :     3.643801
      pz      :     1.479235  p :     4.624260
      px      :     1.759609
      py      :     1.385416
      dz2     :     0.003442  d :     0.009472
      dxz     :     0.001741
      dyz     :     0.000394
      dx2y2   :     0.003314
      dxy     :     0.000580
  7 H s       :     0.790993  s :     0.790993
      pz      :     0.019388  p :     0.079527
      px      :     0.020940
      py      :     0.039199
  8 H s       :     0.720533  s :     0.720533
      pz      :     0.034168  p :     0.073447
      px      :     0.022982
      py      :     0.016297
  9 O s       :     3.673251  s :     3.673251
      pz      :     1.323942  p :     4.653402
      px      :     1.684791
      py      :     1.644669
      dz2     :     0.000491  d :     0.009720
      dxz     :     0.001585
      dyz     :     0.004135
      dx2y2   :     0.001477
      dxy     :     0.002032
 10 H s       :     0.732038  s :     0.732038
      pz      :     0.025314  p :     0.072204
      px      :     0.027077
      py      :     0.019814
 11 H s       :     0.749422  s :     0.749422
      pz      :     0.032550  p :     0.074265
      px      :     0.017932
      py      :     0.023783
 12 O s       :     3.636819  s :     3.636819
      pz      :     1.326139  p :     4.686659
      px      :     1.768822
      py      :     1.591698
      dz2     :     0.001805  d :     0.008374
      dxz     :     0.000372
      dyz     :     0.002931
      dx2y2   :     0.001181
      dxy     :     0.002085
 13 H s       :     0.732618  s :     0.732618
      pz      :     0.036379  p :     0.069436
      px      :     0.018197
      py      :     0.014859
 14 H s       :     0.740156  s :     0.740156
      pz      :     0.024536  p :     0.076999
      px      :     0.024097
      py      :     0.028366
 15 O s       :     3.714891  s :     3.714891
      pz      :     1.431302  p :     4.801566
      px      :     1.516992
      py      :     1.853272
      dz2     :     0.002389  d :     0.007984
      dxz     :     0.000665
      dyz     :     0.001785
      dx2y2   :     0.002081
      dxy     :     0.001064
 16 H s       :     0.752407  s :     0.752407
      pz      :     0.016999  p :     0.071779
      px      :     0.039447
      py      :     0.015333
 17 H s       :     0.755085  s :     0.755085
      pz      :     0.034353  p :     0.068589
      px      :     0.014084
      py      :     0.020151
 18 O s       :     3.684353  s :     3.684353
      pz      :     1.326120  p :     4.686439
      px      :     1.452477
      py      :     1.907841
      dz2     :     0.003008  d :     0.009524
      dxz     :     0.001964
      dyz     :     0.000869
      dx2y2   :     0.002873
      dxy     :     0.000810
 19 H s       :     0.777381  s :     0.777381
      pz      :     0.017629  p :     0.075140
      px      :     0.039882
      py      :     0.017629
 20 H s       :     0.759012  s :     0.759012
      pz      :     0.034411  p :     0.071411
      px      :     0.016115
      py      :     0.020885


                     *******************************
                     * LOEWDIN POPULATION ANALYSIS *
                     *******************************

----------------------
LOEWDIN ATOMIC CHARGES
----------------------
   0 O :   -0.135273
   1 H :    0.103554
   2 H :    0.097602
   3 O :   -0.127024
   4 H :    0.044387
   5 H :    0.114539
   6 O :   -0.041453
   7 H :    0.018942
   8 H :    0.105319
   9 O :   -0.138293
  10 H :    0.101406
  11 H :    0.075911
  12 O :   -0.088054
  13 H :    0.089362
  14 H :    0.061884
  15 O :   -0.315037
  16 H :    0.048342
  17 H :    0.055609
  18 O :   -0.188624
  19 H :    0.046754
  20 H :    0.070147

-------------------------------
LOEWDIN REDUCED ORBITAL CHARGES
-------------------------------
  0 O s       :     3.422382  s :     3.422382
      pz      :     1.508964  p :     4.694987
      px      :     1.622603
      py      :     1.563420
      dz2     :     0.000884  d :     0.017903
      dxz     :     0.007472
      dyz     :     0.002525
      dx2y2   :     0.001300
      dxy     :     0.005722
  1 H s       :     0.718308  s :     0.718308
      pz      :     0.067416  p :     0.178137
      px      :     0.065791
      py      :     0.044930
  2 H s       :     0.718885  s :     0.718885
      pz      :     0.050760  p :     0.183514
      px      :     0.060471
      py      :     0.072283
  3 O s       :     3.412559  s :     3.412559
      pz      :     1.800405  p :     4.699058
      px      :     1.621823
      py      :     1.276831
      dz2     :     0.001116  d :     0.015407
      dxz     :     0.001890
      dyz     :     0.003776
      dx2y2   :     0.001231
      dxy     :     0.007393
  4 H s       :     0.745761  s :     0.745761
      pz      :     0.056417  p :     0.209853
      px      :     0.075451
      py      :     0.077985
  5 H s       :     0.713203  s :     0.713203
      pz      :     0.050557  p :     0.172259
      px      :     0.050286
      py      :     0.071416
  6 O s       :     3.362211  s :     3.362211
      pz      :     1.499800  p :     4.660125
      px      :     1.705140
      py      :     1.455185
      dz2     :     0.006970  d :     0.019117
      dxz     :     0.004158
      dyz     :     0.000190
      dx2y2   :     0.007309
      dxy     :     0.000490
  7 H s       :     0.762411  s :     0.762411
      pz      :     0.047433  p :     0.218647
      px      :     0.058341
      py      :     0.112873
  8 H s       :     0.708794  s :     0.708794
      pz      :     0.087435  p :     0.185886
      px      :     0.063331
      py      :     0.035121
  9 O s       :     3.408151  s :     3.408151
      pz      :     1.365955  p :     4.711448
      px      :     1.682079
      py      :     1.663414
      dz2     :     0.001558  d :     0.018694
      dxz     :     0.003933
      dyz     :     0.008712
      dx2y2   :     0.001599
      dxy     :     0.002892
 10 H s       :     0.717193  s :     0.717193
      pz      :     0.052379  p :     0.181401
      px      :     0.073026
      py      :     0.055996
 11 H s       :     0.732938  s :     0.732938
      pz      :     0.073933  p :     0.191151
      px      :     0.048391
      py      :     0.068827
 12 O s       :     3.359268  s :     3.359268
      pz      :     1.363462  p :     4.711131
      px      :     1.721888
      py      :     1.625780
      dz2     :     0.004745  d :     0.017655
      dxz     :     0.001623
      dyz     :     0.006023
      dx2y2   :     0.001275
      dxy     :     0.003990
 13 H s       :     0.732681  s :     0.732681
      pz      :     0.089263  p :     0.177957
      px      :     0.048098
      py      :     0.040596
 14 H s       :     0.726872  s :     0.726872
      pz      :     0.053381  p :     0.211244
      px      :     0.072991
      py      :     0.084872
 15 O s       :     3.482971  s :     3.482971
      pz      :     1.461418  p :     4.818305
      px      :     1.535744
      py      :     1.821143
      dz2     :     0.004653  d :     0.013760
      dxz     :     0.001120
      dyz     :     0.003335
      dx2y2   :     0.003518
      dxy     :     0.001134
 16 H s       :     0.741140  s :     0.741140
      pz      :     0.040532  p :     0.210518
      px      :     0.125653
      py      :     0.044333
 17 H s       :     0.755709  s :     0.755709
      pz      :     0.095700  p :     0.188682
      px      :     0.033536
      py      :     0.059446
 18 O s       :     3.432752  s :     3.432752
      pz      :     1.381106  p :     4.738565
      px      :     1.506197
      py      :     1.851262
      dz2     :     0.006613  d :     0.017308
      dxz     :     0.003443
      dyz     :     0.001726
      dx2y2   :     0.005193
      dxy     :     0.000333
 19 H s       :     0.752698  s :     0.752698
      pz      :     0.036272  p :     0.200548
      px      :     0.114067
      py      :     0.050208
 20 H s       :     0.745474  s :     0.745474
      pz      :     0.085755  p :     0.184379
      px      :     0.041310
      py      :     0.057314


                      *****************************
                      * MAYER POPULATION ANALYSIS *
                      *****************************

  NA   - Mulliken gross atomic population
  ZA   - Total nuclear charge
  QA   - Mulliken gross atomic charge
  VA   - Mayer's total valence
  BVA  - Mayer's bonded valence
  FA   - Mayer's free valence

  ATOM       NA         ZA         QA         VA         BVA        FA
  0 O      8.3316     8.0000    -0.3316     2.0958     2.0958    -0.0000
  1 H      0.8014     1.0000     0.1986     1.0040     1.0040     0.0000
  2 H      0.7985     1.0000     0.2015     0.9913     0.9913     0.0000
  3 O      8.3729     8.0000    -0.3729     2.0962     2.0962    -0.0000
  4 H      0.8237     1.0000     0.1763     1.0889     1.0889     0.0000
  5 H      0.7789     1.0000     0.2211     0.9781     0.9781    -0.0000
  6 O      8.2775     8.0000    -0.2775     2.1747     2.1747     0.0000
  7 H      0.8705     1.0000     0.1295     1.1314     1.1314    -0.0000
  8 H      0.7940     1.0000     0.2060     0.9987     0.9987     0.0000
  9 O      8.3364     8.0000    -0.3364     2.0715     2.0715     0.0000
 10 H      0.8042     1.0000     0.1958     0.9979     0.9979     0.0000
 11 H      0.8237     1.0000     0.1763     1.0261     1.0261    -0.0000
 12 O      8.3319     8.0000    -0.3319     2.1087     2.1087     0.0000
 13 H      0.8021     1.0000     0.1979     1.0384     1.0384     0.0000
 14 H      0.8172     1.0000     0.1828     1.0108     1.0108     0.0000
 15 O      8.5244     8.0000    -0.5244     1.8791     1.8791     0.0000
 16 H      0.8242     1.0000     0.1758     1.0766     1.0766    -0.0000
 17 H      0.8237     1.0000     0.1763     1.0635     1.0635     0.0000
 18 O      8.3803     8.0000    -0.3803     2.0314     2.0314     0.0000
 19 H      0.8525     1.0000     0.1475     1.1017     1.1017     0.0000
 20 H      0.8304     1.0000     0.1696     1.0492     1.0492    -0.0000

  Mayer bond orders larger than 0.100000
B(  0-O ,  1-H ) :   0.9751 B(  0-O ,  2-H ) :   0.9750 B(  0-O ,  7-H ) :   0.1202 
B(  3-O ,  4-H ) :   0.9128 B(  3-O ,  5-H ) :   0.9640 B(  3-O , 16-H ) :   0.1899 
B(  4-H , 12-O ) :   0.1604 B(  6-O ,  7-H ) :   0.9388 B(  6-O ,  8-H ) :   0.9710 
B(  6-O , 17-H ) :   0.1175 B(  6-O , 19-H ) :   0.1219 B(  9-O , 10-H ) :   0.9796 
B(  9-O , 11-H ) :   0.9846 B( 12-O , 13-H ) :   0.9437 B( 12-O , 14-H ) :   0.9958 
B( 15-O , 16-H ) :   0.8891 B( 15-O , 17-H ) :   0.9391 B( 18-O , 19-H ) :   0.9446 
B( 18-O , 20-H ) :   0.9750 

-------
TIMINGS
-------

Total SCF time: 0 days 0 hours 0 min 11 sec 

Total time                  ....      11.112 sec
Sum of individual times     ....      10.621 sec  ( 95.6%)

Fock matrix formation       ....       9.716 sec  ( 87.4%)
  XC integration            ....       0.823 sec  (  8.5% of F)
    Basis function eval.    ....       0.361 sec  ( 43.9% of XC)
    Density eval.           ....       0.153 sec  ( 18.6% of XC)
    XC-Functional eval.     ....       0.082 sec  (  9.9% of XC)
    XC-Potential eval.      ....       0.167 sec  ( 20.3% of XC)
Diagonalization             ....       0.025 sec  (  0.2%)
Density matrix formation    ....       0.004 sec  (  0.0%)
Population analysis         ....       0.008 sec  (  0.1%)
Initial guess               ....       0.179 sec  (  1.6%)
Orbital Transformation      ....       0.000 sec  (  0.0%)
Orbital Orthonormalization  ....       0.000 sec  (  0.0%)
DIIS solution               ....       0.007 sec  (  0.1%)
SOSCF solution              ....       0.011 sec  (  0.1%)
Grid generation             ....       0.671 sec  (  6.0%)


-------------------------------------------------------------------------------
                          DFT DISPERSION CORRECTION                            
                                                                               
                              DFTD3 V3.1  Rev 1                                
                          USING Becke-Johnson damping                          
-------------------------------------------------------------------------------
The PBE0 functional is recognized
Active option DFTDOPT                   ...         4   

molecular C6(AA) [au] = 2181.527372 


            DFT-D V3
 parameters
 s6 scaling factor         :     1.0000 
 a1 scaling factor         :     0.4145 
 s8 scaling factor         :     1.2177 
 a2 scaling factor         :     4.8593 
 ad hoc parameters k1-k3   :    16.0000     1.3333    -4.0000 

 Edisp/kcal,au: -5.696621665585  -0.009078143508 
 E6   /kcal   :  -3.972354188 
 E8   /kcal   :  -1.724267478 
 % E8         :  30.268246322 

-------------------------   ----------------
Dispersion correction           -0.009078144
-------------------------   ----------------


-------------------------   --------------------
FINAL SINGLE POINT ENERGY      -534.060571658919
-------------------------   --------------------

[1615913073.697360] [comp0813:193719:0]            sys.c:618  UCX  ERROR shmget(size=2097152 flags=0xfb0) for mm_recv_desc failed: Operation not permitted, please check shared memory limits by 'ipcs -l'
[1615913073.701561] [comp0813:193721:0]            sys.c:618  UCX  ERROR shmget(size=2097152 flags=0xfb0) for mm_recv_desc failed: Operation not permitted, please check shared memory limits by 'ipcs -l'
[1615913073.716454] [comp0813:193722:0]            sys.c:618  UCX  ERROR shmget(size=2097152 flags=0xfb0) for mm_recv_desc failed: Operation not permitted, please check shared memory limits by 'ipcs -l'
[1615913073.717384] [comp0813:193720:0]            sys.c:618  UCX  ERROR shmget(size=2097152 flags=0xfb0) for mm_recv_desc failed: Operation not permitted, please check shared memory limits by 'ipcs -l'


           ************************************************************
           *        Program running with 4 parallel MPI-processes     *
           *              working on a common directory               *
           ************************************************************
[1615913073.738790] [comp0813:193721:0]            sys.c:618  UCX  ERROR shmget(size=2097152 flags=0xb80) for ucp_am_bufs failed: Operation not permitted, please check shared memory limits by 'ipcs -l'
[1615913073.739083] [comp0813:193720:0]            sys.c:618  UCX  ERROR shmget(size=2097152 flags=0xb80) for ucp_am_bufs failed: Operation not permitted, please check shared memory limits by 'ipcs -l'
------------------------------------------------------------------------------
                         ORCA SCF GRADIENT CALCULATION
------------------------------------------------------------------------------

[1615913073.749493] [comp0813:193722:0]            sys.c:618  UCX  ERROR shmget(size=2097152 flags=0xb80) for ucp_am_bufs failed: Operation not permitted, please check shared memory limits by 'ipcs -l'
Gradient of the Kohn-Sham DFT energy:
Kohn-Sham wavefunction type      ... RKS
Hartree-Fock exchange scaling    ...    0.250
Number of operators              ...    1
Number of atoms                  ...   21
Basis set dimensions             ...  168
Integral neglect threshold       ... 2.5e-11
Integral primitive cutoff        ... 2.5e-12

Nuclear repulsion gradient       ... done
One Electron Gradient            ... done
Pre-screening matrix             ... done
Starting the two electron gradient:
Two electron gradient done
Exchange-correlation gradient    ... done
Dispersion correction            ... done

------------------
CARTESIAN GRADIENT
------------------

   1   O   :    0.004661047   -0.003234003   -0.002265973
   2   H   :    0.001510939   -0.003565662    0.000407739
   3   H   :   -0.004234524    0.007219396    0.004713411
   4   O   :   -0.002959348   -0.017663927    0.001045057
   5   H   :    0.010273465   -0.000206405    0.002069176
   6   H   :   -0.001777253    0.018329605   -0.003357838
   7   O   :   -0.003767374   -0.055545439   -0.005530911
   8   H   :    0.003386495    0.064628469   -0.017039345
   9   H   :   -0.007944249   -0.007327015    0.018961792
  10   O   :   -0.007896138   -0.014727782    0.019744782
  11   H   :    0.004703870    0.001306215    0.006119598
  12   H   :    0.001211987    0.012141915   -0.025073154
  13   O   :   -0.043867577   -0.069512118    0.047047215
  14   H   :    0.004434322    0.003175975   -0.009921063
  15   H   :    0.034097348    0.064341305   -0.031860571
  16   O   :    0.034601081    0.021391942    0.022835352
  17   H   :   -0.031278161   -0.007007108    0.001614984
  18   H   :   -0.007565992   -0.011036448   -0.024355830
  19   O   :   -0.007669391   -0.001053901   -0.005654248
  20   H   :    0.012205809   -0.007776759   -0.003924804
  21   H   :    0.007873643    0.006121744    0.004424632

Difference to translation invariance:
           :    0.0000000000   -0.0000000000   -0.0000000000

Norm of the cartesian gradient     ...    0.1742118272
RMS gradient                       ...    0.0219486272
MAX gradient                       ...    0.0695121179

-------
TIMINGS
-------

Total SCF gradient time            ...        3.460 sec

One electron gradient       ....       0.034 sec  (  1.0%)
Prescreening matrices       ....       0.019 sec  (  0.6%)
Two electron gradient       ....       1.524 sec  ( 44.0%)
XC gradient                 ....       1.167 sec  ( 33.7%)
CPCM gradient               ....       0.520 sec  ( 15.0%)
   A-Matrix (El+Nuc)        ....       0.049 sec  (  1.4%)
   Potential                ....       0.471 sec  ( 13.6%)
[1615913077.197475] [comp0813:193719:0]            sys.c:618  UCX  ERROR shmget(size=2097152 flags=0xb80) for ucp_am_bufs failed: Operation not permitted, please check shared memory limits by 'ipcs -l'
------------------------------------------------------------------------------
                         ORCA GEOMETRY RELAXATION STEP
------------------------------------------------------------------------------

Reading the OPT-File                    .... done
Getting information on internals        .... done
Copying old internal coords+grads       .... done
Making the new internal coordinates     .... (new redundants).... done
Validating the new internal coordinates .... (new redundants).... done
Calculating the B-matrix                .... done
Calculating the G,G- and P matrices     .... done
Transforming gradient to internals      .... done
Projecting the internal gradient        .... done
Number of atoms                         ....  21
Number of internal coordinates          .... 165
Current Energy                          ....  -534.060571659 Eh
Current gradient norm                   ....     0.174211827 Eh/bohr
Maximum allowed component of the step   ....  0.300
Current trust radius                    ....  0.300
Evaluating the initial hessian          ....  (Almloef) done
Projecting the Hessian                  .... done
Forming the augmented Hessian           .... done
Diagonalizing the augmented Hessian     .... done
Last element of RFO vector              ....  0.945857292
Lowest eigenvalues of augmented Hessian:
 -0.026685391  0.000946005  0.001297405  0.002549586  0.006743394
Length of the computed step             ....  0.343162532
Warning: the length of the step is outside the trust region - taking restricted step instead
The input lambda is                     ....    -0.026685
   iter:   1  x=   -0.034408  g=    3.594585 f(x)=     0.027761
   iter:   2  x=   -0.037177  g=    2.191932 f(x)=     0.006070
   iter:   3  x=   -0.037414  g=    1.882435 f(x)=     0.000445
   iter:   4  x=   -0.037415  g=    1.859104 f(x)=     0.000003
   iter:   5  x=   -0.037415  g=    1.858958 f(x)=     0.000000
   iter:   6  x=   -0.037415  g=    1.858958 f(x)=    -0.000000
The output lambda is                    ....    -0.037415 (6 iterations)
The final length of the internal step   ....  0.300000000
Converting the step to cartesian space:
 Initial RMS(Int)=    0.0233549683
Transforming coordinates:
 Iter   0:  RMS(Cart)=    0.0412821984 RMS(Int)=    0.0233322014
 Iter   1:  RMS(Cart)=    0.0005595666 RMS(Int)=    0.0004140074
 Iter   2:  RMS(Cart)=    0.0000270940 RMS(Int)=    0.0000211562
 Iter   3:  RMS(Cart)=    0.0000013444 RMS(Int)=    0.0000011410
 Iter   4:  RMS(Cart)=    0.0000000794 RMS(Int)=    0.0000000878
done
Storing new coordinates                 .... done

                                .--------------------.
          ----------------------|Geometry convergence|-------------------------
          Item                value                   Tolerance       Converged
          ---------------------------------------------------------------------
          RMS gradient        0.0088137077            0.0005000000      NO
          MAX gradient        0.0789434235            0.0020000000      NO
          RMS step            0.0233549683            0.0070000000      NO
          MAX step            0.1205521475            0.0100000000      NO
          ........................................................
          Max(Bonds)      0.0638      Max(Angles)    1.88
          Max(Dihed)        1.85      Max(Improp)    0.00
          ---------------------------------------------------------------------

The optimization has not yet converged - more geometry cycles are needed


    ---------------------------------------------------------------------------
                         Redundant Internal Coordinates
                            (Angstroem and degrees)

        Definition                    Value    dE/dq     Step     New-Value
    ----------------------------------------------------------------------------
     1. B(H   1,O   0)                0.9664 -0.000408  0.0003    0.9667   
     2. B(H   2,O   0)                0.9579 -0.006612  0.0073    0.9652   
     3. B(H   4,O   3)                0.9745 -0.005176  0.0042    0.9787   
     4. B(H   5,O   3)                0.9830  0.015228 -0.0177    0.9653   
     5. B(H   7,O   6)                0.9187 -0.042162  0.0489    0.9676   
     6. B(H   7,H   1)                2.5105  0.001341 -0.0086    2.5019   
     7. B(H   7,H   2)                2.3478 -0.001725  0.0015    2.3493   
     8. B(H   7,O   0)                2.0328  0.000438 -0.0046    2.0282   
     9. B(H   8,O   6)                0.9477 -0.020912  0.0190    0.9668   
    10. B(O   9,H   7)                2.4720  0.001067 -0.0007    2.4713   
    11. B(H  10,O   9)                0.9588 -0.007859  0.0071    0.9659   
    12. B(H  11,H   7)                2.6335  0.003621 -0.0119    2.6217   
    13. B(H  11,H   2)                2.4744 -0.001116  0.0058    2.4802   
    14. B(H  11,O   0)                2.6102  0.003054 -0.0128    2.5974   
    15. B(H  11,O   9)                0.9413 -0.025304  0.0245    0.9657   
    16. B(O  12,H   4)                1.7923  0.000080 -0.0128    1.7795   
    17. B(H  13,H   4)                2.2314  0.001797 -0.0100    2.2215   
    18. B(H  13,O  12)                0.9776  0.012806 -0.0143    0.9633   
    19. B(H  14,O  12)                0.9015 -0.078943  0.0613    0.9628   
    20. B(H  16,H   5)                2.0161  0.000668  0.0067    2.0228   
    21. B(H  16,O  15)                1.0271  0.027253 -0.0345    0.9926   
    22. B(H  16,O   3)                1.6713 -0.003137  0.0086    1.6800   
    23. B(H  17,O  15)                1.0064  0.028525 -0.0320    0.9744   
    24. B(H  17,O   6)                1.8512  0.001939 -0.0190    1.8322   
    25. B(O  18,O   9)                2.8609  0.003577  0.0044    2.8654   
    26. B(O  18,H  13)                2.3149  0.006335 -0.0638    2.2511   
    27. B(H  19,O   9)                2.7310 -0.007784  0.0073    2.7383   
    28. B(H  19,O  18)                0.9805  0.000581 -0.0022    0.9784   
    29. B(H  19,H   7)                1.7533 -0.007851  0.0551    1.8084   
    30. B(H  19,O   6)                1.7995 -0.010951  0.0540    1.8535   
    31. B(H  19,H  11)                2.9280 -0.002455 -0.0041    2.9239   
    32. B(H  20,O  18)                0.9646 -0.002318  0.0040    0.9687   
    33. B(H  20,H  11)                2.8105 -0.002672  0.0043    2.8148   
    34. B(H  20,H  10)                2.5964  0.000925 -0.0023    2.5941   
[...]
     20      -0.002229  -0.001494   0.005392  -0.001647  -0.000091   0.000027
     21       0.106460   0.006593  -0.153596   0.016926   0.000053  -0.000449
     22      -0.497897  -0.009169   0.725237  -0.089450  -0.000395   0.001119
     23       0.083994  -0.000627  -0.130851   0.013607   0.000094  -0.000152
     24       0.038290  -0.012540  -0.038025  -0.013552  -0.001005   0.000357
     25       0.026537  -0.004662  -0.034925  -0.001675  -0.000475   0.000105
     26      -0.054108   0.014368   0.059471   0.022210   0.001376  -0.000393
     27       0.007090   0.031125   0.015717  -0.000165  -0.000275   0.006797
     28       0.001686   0.005759   0.003287  -0.000022  -0.000203   0.004676
     29       0.005653   0.027841   0.014762  -0.000250   0.000183  -0.004425
     30       0.004866   0.052021   0.034180  -0.001383   0.004435  -0.101581
     31      -0.000352   0.031779   0.022904  -0.001005   0.003499  -0.075445
     32       0.003809  -0.021086  -0.017715   0.001016  -0.003265   0.079113
     33      -0.113176  -0.538197  -0.283444   0.004330  -0.000347  -0.004289
     34      -0.026185  -0.126383  -0.070722   0.001297   0.000029  -0.000255
     35      -0.085713  -0.409467  -0.214717   0.003249   0.000308  -0.009730
     36       0.003918  -0.000402   0.001325  -0.000073  -0.002767   0.021374
     37       0.002661  -0.000480   0.000789   0.000005   0.007015  -0.056137
     38      -0.011580   0.001559  -0.003776   0.000026  -0.001561   0.008640
     39      -0.059181   0.007239  -0.019623   0.000238  -0.003871   0.021943
     40      -0.062796   0.005109  -0.020456   0.000257  -0.000541  -0.011125
     41       0.193975  -0.022634   0.064017  -0.000736   0.009681  -0.034256
     42      -0.006097   0.000022  -0.002907   0.000417   0.046091  -0.363753
     43       0.021877   0.001217   0.008328  -0.000402  -0.113837   0.902082
     44      -0.007770  -0.003783  -0.003112   0.000127   0.011652  -0.096618
     45       0.000215  -0.000110  -0.000580   0.003637   0.001108   0.000179
     46      -0.000398  -0.001431   0.003120   0.029459  -0.000036   0.000014
     47       0.000520   0.002047  -0.004971  -0.054148  -0.000840  -0.000135
     48      -0.004338  -0.000119   0.015406  -0.017884  -0.018120  -0.002822
     49       0.000694  -0.000376  -0.002567   0.014637   0.004650   0.000563
     50       0.002258   0.001269  -0.009548  -0.012807   0.006156   0.000671
     51       0.001221   0.002296  -0.005918  -0.034252  -0.000216  -0.000211
     52       0.006367   0.023205  -0.052344  -0.488937  -0.003724  -0.000815
     53      -0.008669  -0.032466   0.078841   0.859932   0.006406   0.001217
     54      -0.036701   0.029010  -0.028351   0.003288  -0.000052   0.000595
     55       0.019870   0.040801  -0.006973   0.001831   0.000076  -0.000596
     56      -0.004371   0.007053  -0.004995   0.000654   0.000013  -0.000352
     57       0.511121  -0.523730   0.447102  -0.055976   0.000620  -0.006876
     58       0.249656  -0.224607   0.201063  -0.022740   0.000301  -0.003601
     59       0.092780  -0.096249   0.083260  -0.010731   0.000146  -0.000529
     60       0.064629   0.074170   0.000983   0.001889   0.000259  -0.002431
     61      -0.562825  -0.411599  -0.095811  -0.005797  -0.001623   0.015419
     62      -0.035587  -0.015122  -0.006300  -0.000101  -0.000085   0.001901
                  60         61         62    
      0      -0.051229  -0.009917   0.012625
      1       0.030063   0.005417  -0.007391
      2       0.004251   0.000558  -0.000479
      3      -0.019098  -0.004444   0.004810
      4      -0.018804   0.000001  -0.000584
      5      -0.034322  -0.002438   0.001183
      6       0.833990   0.158460  -0.205525
      7      -0.455641  -0.087736   0.112923
      8      -0.028629  -0.006194   0.007499
      9       0.000085  -0.000012   0.000010
     10      -0.000016  -0.000861   0.000108
     11       0.000052  -0.000050   0.000032
     12      -0.000834   0.002186  -0.000463
     13      -0.000785   0.002071  -0.000526
     14      -0.000996   0.003212  -0.000762
     15      -0.000141  -0.001921   0.000230
     16       0.000819   0.012016  -0.001401
     17      -0.000116  -0.002447   0.000299
     18       0.006949   0.007314   0.032064
     19       0.002911   0.004254   0.022696
     20      -0.009150  -0.010193  -0.046300
     21       0.001262   0.005328   0.033249
     22       0.010139  -0.007218  -0.093856
     23      -0.007462  -0.003626   0.000011
     24      -0.112033  -0.121642  -0.543144
     25      -0.055021  -0.059225  -0.262222
     26       0.151643   0.164319   0.733136
     27      -0.009312   0.044021  -0.008194
     28      -0.006716   0.030066  -0.005396
     29       0.007092  -0.027716   0.004458
     30       0.148082  -0.640039   0.111720
     31       0.108173  -0.468287   0.081846
     32      -0.117955   0.510970  -0.089503
     33      -0.001477  -0.055249   0.018280
     34      -0.001742  -0.006260   0.003736
     35       0.004637  -0.068628   0.018363
     36       0.001307  -0.002955   0.000400
     37      -0.003423   0.007855  -0.001119
     38       0.000540  -0.001260   0.000189
     39       0.001358  -0.003492   0.000673
     40      -0.000815   0.002450  -0.000423
     41      -0.002178   0.004552  -0.000687
     42      -0.022125   0.050015  -0.006937
     43       0.055300  -0.128156   0.018275
     44      -0.006365   0.015582  -0.002307
     45       0.000170   0.000000  -0.000192
     46      -0.000824  -0.000373  -0.000695
     47       0.000626   0.000454   0.001729
     48      -0.004256  -0.000539   0.002457
     49       0.000526   0.000008  -0.000872
     50       0.002435   0.000616  -0.000671
     51       0.000919   0.000518   0.000943
     52       0.008707   0.005003   0.013065
     53      -0.014762  -0.008771  -0.025982
     54      -0.000252  -0.000336  -0.001372
     55       0.000141  -0.001384  -0.000494
     56      -0.000067  -0.000029  -0.000292
     57       0.003744   0.008677   0.022746
     58       0.001493   0.003505   0.008592
     59       0.000661   0.001278   0.004356
     60       0.000425  -0.002830   0.000009
     61      -0.003671   0.018000  -0.000928
     62       0.000332  -0.001532   0.000478


-----------
IR SPECTRUM
-----------

 Mode    freq (cm**-1)   T**2         TX         TY         TZ
-------------------------------------------------------------------
   8:        43.97   12.400379  ( -2.291799  -0.330264   2.653104)
   9:        50.05    7.892642  (  2.219210   1.603175   0.630538)
  10:        56.53   13.743579  ( -1.420784   2.452708   2.389388)
  11:        79.81    8.326731  ( -2.348648  -0.278246   1.653228)
  12:       121.59    2.159745  ( -0.160733   1.393546   0.438107)
  13:       172.45   49.212315  ( -3.037584  -0.735932   6.280430)
  14:       192.03   68.200236  ( -1.477554  -8.004334   1.395601)
  15:       204.98   45.930614  (  4.468121  -1.199830   4.952466)
  16:       219.16   24.552798  ( -4.597191   1.157262  -1.442004)
  17:       240.08   41.990214  ( -1.861768  -0.343537   6.197259)
  18:       244.53   29.840552  (  3.517417   3.038478   2.869840)
  19:       252.15   84.363431  ( -5.087557  -6.698009  -3.690103)
  20:       268.85  267.794660  (  4.091995 -11.722341 -10.660064)
  21:       271.46  169.001372  ( -7.079057 -10.516964  -2.877811)
  22:       302.72   77.375947  (  7.413099   2.003118   4.290621)
  23:       312.36  117.200707  (  8.287049   3.050397  -6.262635)
  24:       331.60   46.278293  (  6.183450   0.857663  -2.703268)
  25:       340.05   71.517043  (  8.130409  -0.698386   2.219404)
  26:       363.60  196.945114  (  5.609194  12.777891  -1.485789)
  27:       412.80  184.608071  ( -5.251170   8.887671  -8.834172)
  28:       430.15   59.344965  ( -4.264329   5.925215  -2.460141)
  29:       468.99   61.554084  (  2.601547   2.780740   6.859557)
  30:       543.49   53.400744  ( -5.948493   2.185190   3.638834)
  31:       566.49  125.948965  (  4.104444   8.970829  -5.350395)
  32:       597.37  183.665735  (  1.428330   9.797912   9.253461)
  33:       640.34  205.505885  (  6.105758  10.649957   7.402975)
  34:       670.15   38.051262  ( -1.516095   5.925373  -0.801670)
  35:       761.15  369.550239  (  3.977521  -8.621209  16.715392)
  36:       779.40  244.086545  ( 14.603059   2.628182  -4.891816)
  37:       807.66  198.761059  (  2.219129  13.922476   0.034442)
  38:       879.71  359.396435  ( -6.739811   2.640195  17.521437)
  39:       940.61  293.581666  ( -8.532876  -8.946340 -11.863166)
  40:      1009.62   68.426035  (  7.479322  -1.272820  -3.296316)
  41:      1044.32  100.570327  (  4.701689   7.980655  -3.843642)
  42:      1582.11  162.030679  (  0.708322  -0.834906 -12.681951)
  43:      1607.19   58.983235  ( -5.555065   5.105931  -1.433161)
  44:      1630.71  163.917071  ( 12.420790  -2.985379  -0.853556)
  45:      1645.85  150.168954  (  6.926120  -7.146043   7.150656)
  46:      1663.00   16.593612  ( -3.125833   2.188811  -1.425441)
  47:      1671.70   96.340680  ( -4.908091   4.675088   7.098935)
  48:      1696.08  127.324559  ( -9.906197   4.850621  -2.379769)
  49:      3159.83  884.248292  ( 15.199655 -20.286292 -15.546226)
  50:      3220.17  2356.191778  ( -3.531210 -17.297451 -45.216375)
  51:      3279.95  1629.715648  (-38.171593  -8.987952   9.584459)
  52:      3349.16  434.895278  (  4.382443  17.322117  10.753313)
  53:      3446.11  261.952113  ( -8.391609  10.681106  -8.800397)
  54:      3488.88  1068.252581  ( 13.804304 -27.733405  10.418829)
  55:      3516.63  1605.639821  (-31.898292 -20.918844 -12.269507)
  56:      3544.37  453.098276  (  0.739924  20.966694  -3.598405)
  57:      3702.79  488.331916  ( -2.207488  -7.678506  20.603385)
  58:      3860.90  140.930671  (  0.783604 -11.827119   0.660230)
  59:      3868.62   79.292989  ( -4.705406   7.328290  -1.856964)
  60:      3873.62  135.664219  (  9.901073  -6.040356  -1.071009)
  61:      3877.14  175.721504  ( -8.069860  -9.282534   4.943020)
  62:      3880.06  121.718481  ( -5.922990  -3.051210   8.793565)

The first frequency considered to be a vibration is 8
The total number of vibrations considered is 55


--------------------------
THERMOCHEMISTRY AT 298.15K
--------------------------

Temperature         ... 298.15 K
Pressure            ... 1.00 atm
Total Mass          ... 126.10 AMU

Throughout the following assumptions are being made:
  (1) The electronic state is orbitally nondegenerate
  (2) There are no thermally accessible electronically excited states
  (3) Hindered rotations indicated by low frequency modes are not
      treated as such but are treated as vibrations and this may
      cause some error
  (4) All equations used are the standard statistical mechanics
      equations for an ideal gas
  (5) All vibrations are strictly harmonic

freq.      43.97  E(vib)   ...       0.53 
freq.      50.05  E(vib)   ...       0.52 
freq.      56.53  E(vib)   ...       0.52 
freq.      79.81  E(vib)   ...       0.49 
freq.     121.59  E(vib)   ...       0.44 
freq.     172.45  E(vib)   ...       0.38 
freq.     192.03  E(vib)   ...       0.36 
freq.     204.98  E(vib)   ...       0.35 
freq.     219.16  E(vib)   ...       0.33 
freq.     240.08  E(vib)   ...       0.31 
freq.     244.53  E(vib)   ...       0.31 
freq.     252.15  E(vib)   ...       0.30 
freq.     268.85  E(vib)   ...       0.29 
freq.     271.46  E(vib)   ...       0.29 
freq.     302.72  E(vib)   ...       0.26 
freq.     312.36  E(vib)   ...       0.25 
freq.     331.60  E(vib)   ...       0.24 
freq.     340.05  E(vib)   ...       0.23 
freq.     363.60  E(vib)   ...       0.22 
freq.     412.80  E(vib)   ...       0.19 
freq.     430.15  E(vib)   ...       0.18 
freq.     468.99  E(vib)   ...       0.16 
freq.     543.49  E(vib)   ...       0.12 
freq.     566.49  E(vib)   ...       0.11 
freq.     597.37  E(vib)   ...       0.10 
freq.     640.34  E(vib)   ...       0.09 
freq.     670.15  E(vib)   ...       0.08 
freq.     761.15  E(vib)   ...       0.06 
freq.     779.40  E(vib)   ...       0.05 
freq.     807.66  E(vib)   ...       0.05 
freq.     879.71  E(vib)   ...       0.04 
freq.     940.61  E(vib)   ...       0.03 
freq.    1009.62  E(vib)   ...       0.02 
freq.    1044.32  E(vib)   ...       0.02 
freq.    1582.11  E(vib)   ...       0.00 
freq.    1607.19  E(vib)   ...       0.00 
freq.    1630.71  E(vib)   ...       0.00 
freq.    1645.85  E(vib)   ...       0.00 
freq.    1663.00  E(vib)   ...       0.00 
freq.    1671.70  E(vib)   ...       0.00 
freq.    1696.08  E(vib)   ...       0.00 
freq.    3159.83  E(vib)   ...       0.00 
freq.    3220.17  E(vib)   ...       0.00 
freq.    3279.95  E(vib)   ...       0.00 
freq.    3349.16  E(vib)   ...       0.00 
freq.    3446.11  E(vib)   ...       0.00 
freq.    3488.88  E(vib)   ...       0.00 
freq.    3516.63  E(vib)   ...       0.00 
freq.    3544.37  E(vib)   ...       0.00 
freq.    3702.79  E(vib)   ...       0.00 
freq.    3860.90  E(vib)   ...       0.00 
freq.    3868.62  E(vib)   ...       0.00 
freq.    3873.62  E(vib)   ...       0.00 
freq.    3877.14  E(vib)   ...       0.00 
freq.    3880.06  E(vib)   ...       0.00 

------------
INNER ENERGY
------------

The inner energy is: U= E(el) + E(ZPE) + E(vib) + E(rot) + E(trans)
    E(el)   - is the total energy from the electronic structure calculation
              = E(kin-el) + E(nuc-el) + E(el-el) + E(nuc-nuc)
    E(ZPE)  - the the zero temperature vibrational energy from the frequency calculation
    E(vib)  - the the finite temperature correction to E(ZPE) due to population
              of excited vibrational states
    E(rot)  - is the rotational thermal energy
    E(trans)- is the translational thermal energy

Summary of contributions to the inner energy U:
Electronic energy                ...   -534.12170957 Eh
Zero point energy                ...      0.17356244 Eh     108.91 kcal/mol
Thermal vibrational correction   ...      0.01262035 Eh       7.92 kcal/mol
Thermal rotational correction    ...      0.00141627 Eh       0.89 kcal/mol
Thermal translational correction ...      0.00141627 Eh       0.89 kcal/mol
-----------------------------------------------------------------------
Total thermal energy                   -533.93269423 Eh


Summary of corrections to the electronic energy:
(perhaps to be used in another calculation)
Total thermal correction                  0.01545290 Eh       9.70 kcal/mol
Non-thermal (ZPE) correction              0.17356244 Eh     108.91 kcal/mol
-----------------------------------------------------------------------
Total correction                          0.18901534 Eh     118.61 kcal/mol


--------
ENTHALPY
--------

The enthalpy is H = U + kB*T
                kB is Boltzmann's constant
Total free energy                 ...   -533.93269423 Eh 
Thermal Enthalpy correction       ...      0.00094421 Eh       0.59 kcal/mol
-----------------------------------------------------------------------
Total Enthalpy                    ...   -533.93175002 Eh


Note: Only C1 symmetry has been detected, increase convergence thresholds 
      if your molecule has a higher symmetry. Symmetry factor of 1.0 is   
      used for the rotational entropy correction. 
 

Note: Rotational entropy computed according to Herzberg 
Infrared and Raman Spectra, Chapter V,1, Van Nostrand Reinhold, 1945 
Point Group:  C1, Symmetry Number:   1  
Rotational constants in cm-1:     0.045091     0.035498     0.028603 

Vibrational entropy computed according to the QRRHO of S. Grimme
Chem.Eur.J. 2012 18 9955


-------
ENTROPY
-------

The entropy contributions are T*S = T*(S(el)+S(vib)+S(rot)+S(trans))
     S(el)   - electronic entropy
     S(vib)  - vibrational entropy
     S(rot)  - rotational entropy
     S(trans)- translational entropy
The entropies will be listed as mutliplied by the temperature to get
units of energy

Electronic entropy                ...      0.00000000 Eh      0.00 kcal/mol
Vibrational entropy               ...      0.02212575 Eh     13.88 kcal/mol
Rotational entropy                ...      0.01422775 Eh      8.93 kcal/mol
Translational entropy             ...      0.01919974 Eh     12.05 kcal/mol
-----------------------------------------------------------------------
Final entropy term                ...      0.05555324 Eh     34.86 kcal/mol

In case the symmetry of your molecule has not been determined correctly
or in case you have a reason to use a different symmetry number we print 
out the resulting rotational entropy values for sn=1,12 :
 --------------------------------------------------------
|  sn= 1 | S(rot)=       0.01422775 Eh      8.93 kcal/mol|
|  sn= 2 | S(rot)=       0.01357329 Eh      8.52 kcal/mol|
|  sn= 3 | S(rot)=       0.01319046 Eh      8.28 kcal/mol|
|  sn= 4 | S(rot)=       0.01291883 Eh      8.11 kcal/mol|
|  sn= 5 | S(rot)=       0.01270815 Eh      7.97 kcal/mol|
|  sn= 6 | S(rot)=       0.01253600 Eh      7.87 kcal/mol|
|  sn= 7 | S(rot)=       0.01239046 Eh      7.78 kcal/mol|
|  sn= 8 | S(rot)=       0.01226438 Eh      7.70 kcal/mol|
|  sn= 9 | S(rot)=       0.01215317 Eh      7.63 kcal/mol|
|  sn=10 | S(rot)=       0.01205369 Eh      7.56 kcal/mol|
|  sn=11 | S(rot)=       0.01196370 Eh      7.51 kcal/mol|
|  sn=12 | S(rot)=       0.01188155 Eh      7.46 kcal/mol|
 --------------------------------------------------------


-------------------
GIBBS FREE ENERGY
-------------------

The Gibbs free energy is G = H - T*S

Total enthalpy                    ...   -533.93175002 Eh 
Total entropy correction          ...     -0.05555324 Eh    -34.86 kcal/mol
-----------------------------------------------------------------------
Final Gibbs free energy         ...   -533.98730326 Eh

For completeness - the Gibbs free energy minus the electronic energy
G-E(el)                           ...      0.13440631 Eh     84.34 kcal/mol

[1615914339.074588] [comp0813:253096:0]            sys.c:618  UCX  ERROR shmget(size=2097152 flags=0xfb0) for mm_recv_desc failed: Operation not permitted, please check shared memory limits by 'ipcs -l'
[1615914339.085292] [comp0813:253100:0]            sys.c:618  UCX  ERROR shmget(size=2097152 flags=0xfb0) for mm_recv_desc failed: Operation not permitted, please check shared memory limits by 'ipcs -l'
[1615914339.101908] [comp0813:253103:0]            sys.c:618  UCX  ERROR shmget(size=2097152 flags=0xfb0) for mm_recv_desc failed: Operation not permitted, please check shared memory limits by 'ipcs -l'
[1615914339.102500] [comp0813:253098:0]            sys.c:618  UCX  ERROR shmget(size=2097152 flags=0xfb0) for mm_recv_desc failed: Operation not permitted, please check shared memory limits by 'ipcs -l'
[1615914339.133346] [comp0813:253096:0]            sys.c:618  UCX  ERROR shmget(size=2097152 flags=0xb80) for ucp_am_bufs failed: Operation not permitted, please check shared memory limits by 'ipcs -l'
[1615914339.134238] [comp0813:253098:0]            sys.c:618  UCX  ERROR shmget(size=2097152 flags=0xb80) for ucp_am_bufs failed: Operation not permitted, please check shared memory limits by 'ipcs -l'
[1615914339.134991] [comp0813:253100:0]            sys.c:618  UCX  ERROR shmget(size=2097152 flags=0xb80) for ucp_am_bufs failed: Operation not permitted, please check shared memory limits by 'ipcs -l'

Timings for individual modules:

Sum of individual times         ...     1255.359 sec (=  20.923 min)
GTO integral calculation        ...       82.596 sec (=   1.377 min)   6.6 %
SCF iterations                  ...      579.856 sec (=   9.664 min)  46.2 %
SCF Gradient evaluation         ...      307.956 sec (=   5.133 min)  24.5 %
Geometry relaxation             ...       26.511 sec (=   0.442 min)   2.1 %
Analytical frequency calculation...      258.440 sec (=   4.307 min)  20.6 %
                             ****ORCA TERMINATED NORMALLY****
TOTAL RUN TIME: 0 days 0 hours 21 minutes 19 seconds 843 msec
