
                                 *****************
                                 * O   R   C   A *
                                 *****************

           --- An Ab Initio, DFT and Semiempirical electronic structure package ---

                  #######################################################
                  #                        -***-                        #
                  #          Department of theory and spectroscopy      #
                  #               Directorship: Frank Neese             #
                  #        Max Planck Institute fuer Kohlenforschung    #
                  #                Kaiser Wilhelm Platz 1               #
                  #                 D-45470 Muelheim/Ruhr               #
                  #                      Germany                        #
                  #                                                     #
                  #                  All rights reserved                #
                  #                        -***-                        #
                  #######################################################


                         Program Version 4.2.1 -  RELEASE  -


 With contributions from (in alphabetic order):
   Daniel Aravena         : Magnetic Suceptibility
   Michael Atanasov       : Ab Initio Ligand Field Theory (pilot matlab implementation)
   Alexander A. Auer      : GIAO ZORA, VPT2
   Ute Becker             : Parallelization
   Giovanni Bistoni       : ED, misc. LED, open-shell LED, HFLD
   Martin Brehm           : Molecular dynamics
   Dmytro Bykov           : SCF Hessian
   Vijay G. Chilkuri      : MRCI spin determinant printing, contributions to CSF-ICE
   Dipayan Datta          : RHF DLPNO-CCSD density
   Achintya Kumar Dutta   : EOM-CC, STEOM-CC
   Dmitry Ganyushin       : Spin-Orbit,Spin-Spin,Magnetic field MRCI
   Miquel Garcia          : C-PCM Hessian, Gaussian charge scheme
   Yang Guo               : DLPNO-NEVPT2, CIM, IAO-localization
   Andreas Hansen         : Spin unrestricted coupled pair/coupled cluster methods
   Benjamin Helmich-Paris : CASSCF linear response (MC-RPA)
   Lee Huntington         : MR-EOM, pCC
   Robert Izsak           : Overlap fitted RIJCOSX, COSX-SCS-MP3, EOM
   Christian Kollmar      : KDIIS, OOCD, Brueckner-CCSD(T), CCSD density
   Simone Kossmann        : Meta GGA functionals, TD-DFT gradient, OOMP2, MP2 Hessian
   Martin Krupicka        : AUTO-CI
   Lucas Lang             : DCDCAS
   Dagmar Lenk            : GEPOL surface, SMD
   Dimitrios Liakos       : Extrapolation schemes; Compound Job, initial MDCI parallelization
   Dimitrios Manganas     : Further ROCIS development; embedding schemes
   Dimitrios Pantazis     : SARC Basis sets
   Taras Petrenko         : DFT Hessian,TD-DFT gradient, ASA, ECA, R-Raman, ABS, FL, XAS/XES, NRVS
   Peter Pinski           : DLPNO-MP2, DLPNO-MP2 Gradient
   Christoph Reimann      : Effective Core Potentials
   Marius Retegan         : Local ZFS, SOC
   Christoph Riplinger    : Optimizer, TS searches, QM/MM, DLPNO-CCSD(T), (RO)-DLPNO pert. Triples
   Tobias Risthaus        : Range-separated hybrids, TD-DFT gradient, RPA, STAB
   Michael Roemelt        : Original ROCIS implementation
   Masaaki Saitow         : Open-shell DLPNO-CCSD energy and density
   Barbara Sandhoefer     : DKH picture change effects
   Avijit Sen             : IP-ROCIS
   Kantharuban Sivalingam : CASSCF convergence, NEVPT2, FIC-MRCI
   Bernardo de Souza      : ESD, SOC TD-DFT
   Georgi Stoychev        : AutoAux, RI-MP2 NMR
   Willem Van den Heuvel  : Paramagnetic NMR
   Boris Wezisla          : Elementary symmetry handling
   Frank Wennmohs         : Technical directorship


 We gratefully acknowledge several colleagues who have allowed us to
 interface, adapt or use parts of their codes:
   Stefan Grimme, W. Hujo, H. Kruse,             : VdW corrections, initial TS optimization,
                  C. Bannwarth                     DFT functionals, gCP, sTDA/sTD-DF
   Ed Valeev, F. Pavosevic, A. Kumar             : LibInt (2-el integral package), F12 methods
   Garnet Chan, S. Sharma, J. Yang, R. Olivares  : DMRG
   Ulf Ekstrom                                   : XCFun DFT Library
   Mihaly Kallay                                 : mrcc  (arbitrary order and MRCC methods)
   Andreas Klamt, Michael Diedenhofen            : otool_cosmo (COSMO solvation model)
   Jiri Pittner, Ondrej Demel                    : Mk-CCSD
   Frank Weinhold                                : gennbo (NPA and NBO analysis)
   Christopher J. Cramer and Donald G. Truhlar   : smd solvation model
   Lars Goerigk                                  : TD-DFT with DH, B97 family of functionals
   V. Asgeirsson, H. Jonsson                     : NEB implementation
   FAccTs GmbH                                   : IRC, NEB, NEB-TS, Multilevel, MM, QM/MM, CI optimization
   S Lehtola, MJT Oliveira, MAL Marques          : LibXC Library


 Your calculation uses the libint2 library for the computation of 2-el integrals
 For citations please refer to: http://libint.valeyev.net

 Your ORCA version has been built with support for libXC version: 4.2.3
 For citations please refer to: https://tddft.org/programs/libxc/

 This ORCA versions uses:
   CBLAS   interface :  Fast vector & matrix operations
   LAPACKE interface :  Fast linear algebra routines
   SCALAPACK package :  Parallel linear algebra routines




***************************************
The coordinates will be read from file: septamer8.xyz
***************************************


Your calculation utilizes the atom-pairwise dispersion correction
with the Becke-Johnson damping scheme (D3BJ)
Cite in your paper:
S.Grimme, S.Ehrlich, L.Goerigk, J Comput Chem, (2011), 32, 1456–1465 
S.Grimme, J.Antony, S.Ehrlich and H.Krieg, J.Chem.Phys., 132, (2010), 154104 
   

Your calculation utilizes the SMD solvation module
Please cite in your paper:
A.V. Marenich, C.J. Cramer, D.G. Truhlar J. Phys. Chem. B, 113, (2009), 6378 

----- Orbital basis set information -----
Your calculation utilizes the basis: def2-SVP
   F. Weigend and R. Ahlrichs, Phys. Chem. Chem. Phys. 7, 3297 (2005).

================================================================================
                                        WARNINGS
                       Please study these warnings very carefully!
================================================================================


WARNING: Geometry Optimization
  ===> : Switching off AutoStart
         For restart on a previous wavefunction, please use MOREAD

INFO   : the flag for use of LIBINT has been found!

================================================================================
                                       INPUT FILE
================================================================================
NAME = septamer8.inp
|  1> ! PBE0 D3BJ def2-SVP LooseOpt Freq CPCM(water) PAL4
|  2> %geom MaxIter 500 end
|  3> %maxcore 4000
|  4> %cpcm  
|  5>     smd true
|  6>     SMDsolvent "water"
|  7> end
|  8> *xyzfile 0 1 septamer8.xyz
|  9> 
| 10>                          ****END OF INPUT****
================================================================================

                       *****************************
                       * Geometry Optimization Run *
                       *****************************

Geometry optimization settings:
Update method            Update   .... BFGS
Choice of coordinates    CoordSys .... Z-matrix Internals
Initial Hessian          InHess   .... Almoef's Model

Convergence Tolerances:
Energy Change            TolE     ....  3.0000e-05 Eh
Max. Gradient            TolMAXG  ....  2.0000e-03 Eh/bohr
RMS Gradient             TolRMSG  ....  5.0000e-04 Eh/bohr
Max. Displacement        TolMAXD  ....  1.0000e-02 bohr
RMS Displacement         TolRMSD  ....  7.0000e-03 bohr
Strict Convergence                ....  False
------------------------------------------------------------------------------
                        ORCA OPTIMIZATION COORDINATE SETUP
------------------------------------------------------------------------------

The optimization will be done in new redundant internal coordinates
Making redundant internal coordinates   ...  (new redundants) done
Evaluating the initial hessian          ...  (Almloef) done
Evaluating the coordinates              ...  done
Calculating the B-matrix                .... done
Calculating the G-matrix                .... done
Diagonalizing the G-matrix              .... done
Small eigenvalue found = 2.983e-02
The first mode is                       ....  159
The number of degrees of freedom        ....   57

    -----------------------------------------------------------------
                    Redundant Internal Coordinates


    -----------------------------------------------------------------
         Definition                    Initial Value    Approx d2E/dq
    -----------------------------------------------------------------
      1. B(H   1,O   0)                  0.9664         0.507954   
      2. B(H   2,O   0)                  0.9579         0.523900   
      3. B(H   4,O   3)                  0.9745         0.492973   
      4. B(H   5,O   3)                  0.9830         0.477860   
      5. B(H   7,O   0)                  2.0328         0.010102   
      6. B(H   7,H   1)                  2.5105         0.000373   
      7. B(H   7,O   6)                  0.9187         0.605091   
      8. B(H   7,H   2)                  2.3478         0.000679   
      9. B(H   8,O   6)                  0.9477         0.543915   
     10. B(O   9,H   7)                  2.4720         0.002012   
     11. B(H  10,O   9)                  0.9588         0.522234   
     12. B(H  11,H   7)                  2.6335         0.000238   
     13. B(H  11,H   2)                  2.4744         0.000426   
     14. B(H  11,O   0)                  2.6102         0.001211   
     15. B(H  11,O   9)                  0.9413         0.556991   
     16. B(O  12,H   4)                  1.7923         0.024440   
     17. B(H  13,H   4)                  2.2314         0.001041   
     18. B(H  13,O  12)                  0.9776         0.487411   
     19. B(H  14,O  12)                  0.9015         0.644497   
     20. B(H  16,O  15)                  0.9408         0.557873   
     21. B(H  17,O   0)                  1.9645         0.012981   
     22. B(H  17,O  15)                  0.9777         0.487145   
     23. B(H  17,H   2)                  2.5301         0.000348   
     24. B(H  17,H   1)                  2.3518         0.000669   
     25. B(O  18,O   9)                  2.8609         0.002256   
     26. B(O  18,H  13)                  2.3149         0.003584   
     27. B(H  19,H  11)                  2.9280         0.000081   
     28. B(H  19,O   9)                  2.7310         0.000777   
     29. B(H  19,O  18)                  0.9805         0.482154   
     30. B(H  19,H   7)                  1.7533         0.006030   
     31. B(H  19,O   6)                  1.7995         0.023803   
     32. B(H  19,H  13)                  2.7575         0.000151   
     33. B(H  20,H  10)                  2.5964         0.000272   
     34. B(H  20,O   9)                  2.3017         0.003762   
     35. B(H  20,O  18)                  0.9646         0.511168   
     36. B(H  20,H  11)                  2.8105         0.000124   
     37. A(H   1,O   0,H  17)          101.2018         0.189464   
     38. A(H   1,O   0,H   7)          108.3440         0.183921   
     39. A(H   7,O   0,H  17)          130.1824         0.130392   
     40. A(H   2,O   0,H   7)           96.8205         0.184587   
     41. A(H   1,O   0,H   2)          101.6597         0.321003   
     42. A(H   2,O   0,H  17)          115.5642         0.190169   
     43. A(H   7,H   1,H  17)           96.3772         0.095564   
     44. A(O   0,H   1,H  17)           55.0274         0.130541   
     45. A(O   0,H   1,H   7)           50.2258         0.125405   
     46. A(O   0,H   2,H   7)           59.2808         0.130969   
     47. A(H   7,H   2,H  17)           95.9491         0.095479   
     48. A(O   0,H   2,H  17)           44.4639         0.125069   
     49. A(H   4,O   3,H   5)          107.5154         0.314688   
     50. A(O   3,H   4,H  13)          160.4441         0.134603   
     51. A(O   3,H   4,O  12)          164.0561         0.204149   
     52. A(O  12,H   4,H  13)           25.2270         0.112104   
     53. A(H   7,O   6,H  19)           72.2459         0.208898   
     54. A(H   7,O   6,H   8)          102.7496         0.332433   
     55. A(H   8,O   6,H  19)          125.5520         0.206040   
     56. A(H   1,H   7,H   2)           35.5663         0.095586   
     57. A(O   0,H   7,O   6)          136.0747         0.187755   
     58. A(O   0,H   7,H   1)           21.4302         0.103999   
     59. A(H   1,H   7,O   6)          116.8432         0.126876   
     60. A(H   2,H   7,O   6)          149.0032         0.132360   
     61. A(O   0,H   7,H   2)           23.8988         0.106171   
     62. A(H   2,H   7,H  19)          118.4505         0.101361   
     63. A(H   1,H   7,H  19)          107.8869         0.099797   
     64. A(O   0,H   7,H  19)          100.2165         0.117152   
     65. A(O   6,H   7,H  19)           77.8168         0.160089   
     66. A(H  11,O   9,O  18)           96.3560         0.168419   
     67. A(H  10,O   9,O  18)          105.9403         0.167269   
     68. A(H  10,O   9,H  11)          101.7721         0.325722   
     69. A(H   4,O  12,H  13)          103.3848         0.203854   
     70. A(H   4,O  12,H  14)          129.7958         0.211351   
     71. A(H  13,O  12,H  14)          111.6555         0.329879   
     72. A(H   4,H  13,O  18)           91.3794         0.103962   
     73. A(H   4,H  13,O  12)           51.3882         0.134486   
     74. A(O  18,H  13,H  19)           19.9424         0.098660   
     75. A(O  12,H  13,H  19)          128.4611         0.118369   
     76. A(O  12,H  13,O  18)          140.0853         0.163377   
     77. A(H   4,H  13,H  19)           77.0970         0.094908   
     78. A(H  16,O  15,H  17)          107.2695         0.322108   
     79. A(H   2,H  17,O  15)          129.2015         0.124480   
     80. A(O   0,H  17,H   1)           23.7708         0.107115   
     81. A(H   1,H  17,O  15)          146.9213         0.130149   
     82. A(O   0,H  17,O  15)          149.1387         0.188517   
     83. A(H   1,H  17,H   2)           35.3490         0.095458   
     84. A(O   0,H  17,H   2)           19.9719         0.104619   
     85. A(H  19,O  18,H  20)           94.9489         0.317008   
     86. A(O   9,O  18,H  13)          107.3084         0.114346   
     87. A(H  13,O  18,H  20)          138.7991         0.164182   
     88. A(H  13,O  18,H  19)          106.4270         0.163194   
     89. A(O   9,O  18,H  20)           46.2393         0.166891   
     90. A(O   9,O  18,H  19)           72.4913         0.165867   
     91. A(H   7,H  19,H  13)          133.6796         0.097792   
     92. A(O   6,H  19,H  13)          153.2517         0.103829   
     93. A(H  13,H  19,O  18)           53.6306         0.118297   
     94. A(O   6,H  19,H   7)           29.9373         0.123179   
     95. A(H   7,H  19,O  18)          149.1819         0.156527   
     96. A(O   6,H  19,O  18)          153.1168         0.202890   
     97. D(H   7,H   1,O   0,H  17)   -139.3436         0.425097   
     98. D(H  17,H   1,O   0,H   7)    139.3436         0.425097   
     99. D(H   7,H   1,O   0,H   2)    101.3133         0.425097   
    100. D(H  17,H   1,O   0,H   2)   -119.3430         0.425097   
    101. D(H  17,H   2,O   0,H   7)   -141.0372         0.492388   
    102. D(H  17,H   2,O   0,H   1)    108.5780         0.492388   
    103. D(H   7,H   2,O   0,H   1)   -110.3848         0.492388   
    104. D(H   7,H   2,O   0,H  17)    141.0372         0.492388   
    105. D(O  12,H   4,O   3,H   5)    -38.9505         0.301386   
    106. D(H  13,H   4,O   3,H   5)     51.9463         0.301386   
    107. D(O   6,H   7,O   0,H   1)    -30.2736         0.001587   
    108. D(H   1,H   7,O   0,H   2)   -104.7199         0.001587   
    109. D(O   0,H   7,H   1,H  17)    -32.4931         0.001502   
    110. D(O   6,H   7,O   0,H   2)   -134.9935         0.001587   
    111. D(O   6,H   7,O   0,H  17)     92.9503         0.001587   
    112. D(O   6,H   7,H   2,O   0)     72.2924         0.001507   
    113. D(H   1,H   7,H   2,O   0)     37.4123         0.001507   
    114. D(H   2,H   7,O   6,H   8)    110.4468         0.762558   
    115. D(H  19,H   7,O   0,H  17)      9.9576         0.001587   
    116. D(H  19,H   7,O   6,H   8)   -123.6078         0.762558   
    117. D(H   2,H   7,H   1,H  17)    -74.8426         0.001502   
    118. D(H  19,H   7,O   0,H   2)    142.0139         0.001587   
    119. D(H   2,H   7,O   6,H  19)   -125.9454         0.762558   
    120. D(H  19,H   7,H   1,H  17)     39.3182         0.001502   
    121. D(O   6,H   7,H   1,O   0)    156.9235         0.001502   
    122. D(H   2,H   7,O   0,H  17)   -132.0563         0.001587   
    123. D(H   2,H   7,H   1,O   0)    -42.3495         0.001502   
    124. D(O   6,H   7,H   2,H  17)     98.5779         0.001507   
    125. D(H   1,H   7,O   0,H  17)    123.2239         0.001587   
    126. D(O   0,H   7,H   2,H  17)     26.2856         0.001507   
    127. D(H   2,H   7,O   0,H   1)    104.7199         0.001587   
    128. D(O   0,H   7,O   6,H  19)    -92.1441         0.762558   
    129. D(H  19,H   7,H   2,H  17)    -17.2585         0.001507   
    130. D(H  19,H   7,O   0,H   1)   -113.2662         0.001587   
    131. D(H  19,H   7,H   2,O   0)    -43.5441         0.001507   
    132. D(H   1,H   7,H   2,H  17)     63.6979         0.001507   
    133. D(H   1,H   7,O   6,H  19)   -104.0577         0.762558   
    134. D(O   6,H   7,H   1,H  17)    124.4304         0.001502   
    135. D(H   1,H   7,O   6,H   8)    132.3345         0.762558   
    136. D(O   0,H   7,O   6,H   8)    144.2482         0.762558   
    137. D(H  19,H   7,H   1,O   0)     71.8113         0.001502   
    138. D(H  14,O  12,H   4,H  13)    133.7830         0.001855   
    139. D(H  13,O  12,H   4,O   3)    128.2544         0.001855   
    140. D(H  14,O  12,H   4,O   3)    -97.9625         0.001855   
    141. D(O  18,H  13,O  12,H   4)    -24.9554         0.354301   
    142. D(H  19,H  13,O  12,H  14)   -145.4544         0.354301   
    143. D(H   4,H  13,O  12,H  14)   -143.3566         0.354301   
    144. D(O  18,H  13,O  12,H  14)   -168.3120         0.354301   
    145. D(H  19,H  13,O  12,H   4)     -2.0978         0.354301   
    146. D(H  19,H  13,H   4,O  12)    178.3150         0.001512   
    147. D(H  19,H  13,H   4,O   3)     38.4383         0.001512   
    148. D(O  18,H  13,H   4,O  12)    164.2883         0.001512   
    149. D(O  18,H  13,H   4,O   3)     24.4116         0.001512   
    150. D(O  12,H  13,H   4,O   3)   -139.8767         0.001512   
    151. D(O  15,H  17,H   1,O   0)    114.5985         0.001505   
    152. D(H   2,H  17,O   0,H   7)    125.1907         0.001623   
    153. D(H   2,H  17,O   0,H   1)   -108.8513         0.001623   
    154. D(O  15,H  17,O   0,H   2)      4.1900         0.001623   
    155. D(O  15,H  17,O   0,H   1)   -104.6614         0.001623   
    156. D(H   1,H  17,O   0,H   7)   -125.9580         0.001623   
    157. D(H   1,H  17,O   0,H   2)    108.8513         0.001623   
    158. D(O  15,H  17,H   1,H   7)    144.8541         0.001505   
    159. D(O  15,H  17,O   0,H   7)    129.3806         0.001623   
    160. D(H   2,H  17,O  15,H  16)     35.6455         0.324169   
    161. D(H   1,H  17,O  15,H  16)    -11.8002         0.324169   
    162. D(O   0,H  17,O  15,H  16)     33.8000         0.324169   
    163. D(H   1,H  17,H   2,H   7)    -74.1714         0.001502   
    164. D(H   1,H  17,H   2,O   0)    -41.2486         0.001502   
    165. D(O   0,H  17,H   2,H   7)    -32.9228         0.001502   
    166. D(O  15,H  17,H   2,H   7)    149.8494         0.001502   
    167. D(O  15,H  17,H   2,O   0)   -177.2279         0.001502   
    168. D(H   2,H  17,H   1,H   7)     64.2214         0.001505   
    169. D(H   2,H  17,H   1,O   0)     33.9658         0.001505   
    170. D(O   0,H  17,H   1,H   7)     30.2556         0.001505   
    171. D(O   9,O  18,H  13,H   4)    120.1530         0.001509   
    172. D(O   9,O  18,H  13,O  12)    139.4080         0.001509   
    173. D(H  20,O  18,H  13,H   4)    162.0913         0.001509   
    174. D(H  20,O  18,H  13,H  19)    118.2492         0.001509   
    175. D(H  20,O  18,H  13,O  12)   -178.6536         0.001509   
    176. D(H  19,O  18,H  13,H   4)     43.8421         0.001509   
    177. D(H  19,O  18,H  13,O  12)     63.0972         0.001509   
    178. D(H  13,O  18,O   9,H  11)    -22.3334         0.001501   
    179. D(H  13,O  18,O   9,H  10)     81.8664         0.001501   
    180. D(H  20,O  18,O   9,H  11)   -164.7772         0.001501   
    181. D(H  20,O  18,O   9,H  10)    -60.5774         0.001501   
    182. D(O   9,O  18,H  13,H  19)     76.3109         0.001509   
    183. D(H  19,O  18,O   9,H  11)     79.9231         0.001501   
    184. D(H  19,O  18,O   9,H  10)   -175.8770         0.001501   
    185. D(H  13,H  19,O  18,O   9)   -103.4287         0.421918   
    186. D(H   7,H  19,O  18,H  13)    116.0820         0.421918   
    187. D(H   7,H  19,O  18,O   9)     12.6533         0.421918   
    188. D(H   7,H  19,O  18,H  20)    -28.2971         0.421918   
    189. D(O   6,H  19,O  18,H  13)   -179.6523         0.421918   
    190. D(O   6,H  19,O  18,O   9)     76.9190         0.421918   
    191. D(O   6,H  19,O  18,H  20)     35.9687         0.421918   
    192. D(H   7,H  19,H  13,H   4)     84.7810         0.001500   
    193. D(H   7,H  19,H  13,O  12)     86.4625         0.001500   
    194. D(O   6,H  19,H  13,H   4)     44.9190         0.001500   
    195. D(O   6,H  19,H  13,O  18)    179.6506         0.001500   
    196. D(O  18,H  19,H  13,H   4)   -134.7317         0.001500   
    197. D(O  18,H  19,H  13,O  12)   -133.0502         0.001500   
    198. D(H  13,H  19,H   7,H   2)      7.0056         0.002083   
    199. D(H  13,H  19,H   7,H   1)    -30.1218         0.002083   
    200. D(H  13,H  19,H   7,O   0)     -9.4690         0.002083   
    201. D(H  13,H  19,H   7,O   6)   -144.6876         0.002083   
    202. D(O   6,H  19,H  13,O  12)     46.6005         0.001500   
    203. D(O   6,H  19,H   7,H   2)    151.6932         0.002083   
    204. D(O   6,H  19,H   7,H   1)    114.5658         0.002083   
    205. D(O   6,H  19,H   7,O   0)    135.2186         0.002083   
    206. D(H   7,H  19,H  13,O  18)   -140.4873         0.001500   
    207. D(O  18,H  19,H   7,H   2)    -83.0128         0.002083   
    208. D(O  18,H  19,H   7,H   1)   -120.1402         0.002083   
    209. D(O  18,H  19,H   7,O   0)    -99.4873         0.002083   
    210. D(O  18,H  19,H   7,O   6)    125.2940         0.002083   
    211. D(H  13,H  19,O   6,H   8)    161.4640         0.001924   
    212. D(H  13,H  19,O   6,H   7)     68.2538         0.001924   
    213. D(H   7,H  19,O   6,H   8)     93.2102         0.001924   
    214. D(H  13,H  19,O  18,H  20)   -144.3791         0.421918   
    215. D(O  18,H  19,O   6,H   8)    -19.1582         0.001924   
    216. D(O  18,H  19,O   6,H   7)   -112.3683         0.001924   
    -----------------------------------------------------------------

Number of atoms                         .... 21
Number of degrees of freedom            .... 216

         *************************************************************
         *                GEOMETRY OPTIMIZATION CYCLE   1            *
         *************************************************************
---------------------------------
CARTESIAN COORDINATES (ANGSTROEM)
---------------------------------
  O      7.274630    4.418810    3.839960
  H      7.890590    4.728740    4.517000
  H      7.792430    3.742020    3.402360
  O      5.123840    7.671090    5.672860
  H      4.574490    6.941540    5.332810
  H      4.719700    8.513250    5.366770
  O      7.416010    6.660260    2.220580
  H      7.281350    5.755740    2.308690
  H      7.864370    6.724860    1.388110
  O      6.002810    4.093200    1.000200
  H      5.353680    3.685870    0.423980
  H      5.944080    3.552280    1.768280
  O      3.197130    5.915310    4.820910
  H      3.436910    5.652450    3.910360
  H      2.779870    5.248110    5.260830
  O      5.294200    3.014400    5.329440
  H      5.918050    2.334220    5.512050
  H      5.788230    3.766150    4.946310
  O      4.720710    6.387700    2.129930
  H      5.650970    6.387060    2.439910
  H      4.933240    6.118480    1.228330

----------------------------
CARTESIAN COORDINATES (A.U.)
----------------------------
  NO LB      ZA    FRAG     MASS         X           Y           Z
   0 O     8.0000    0    15.999   13.747058    8.350341    7.256473
   1 H     1.0000    0     1.008   14.911054    8.936024    8.535893
   2 H     1.0000    0     1.008   14.725559    7.071393    6.429529
   3 O     8.0000    0    15.999    9.682654   14.496259   10.720152
   4 H     1.0000    0     1.008    8.644533   13.117610   10.077550
   5 H     1.0000    0     1.008    8.918940   16.087711   10.141726
   6 O     8.0000    0    15.999   14.014228   12.586067    4.196288
   7 H     1.0000    0     1.008   13.759757   10.876772    4.362792
   8 H     1.0000    0     1.008   14.861506   12.708144    2.623148
   9 O     8.0000    0    15.999   11.343667    7.735027    1.890104
  10 H     1.0000    0     1.008   10.116989    6.965285    0.801206
  11 H     1.0000    0     1.008   11.232683    6.712836    3.341565
  12 O     8.0000    0    15.999    6.041700   11.178316    9.110200
  13 H     1.0000    0     1.008    6.494819   10.681582    7.389509
  14 H     1.0000    0     1.008    5.253193    9.917491    9.941528
  15 O     8.0000    0    15.999   10.004588    5.696390   10.071182
  16 H     1.0000    0     1.008   11.183494    4.411037   10.416265
  17 H     1.0000    0     1.008   10.938170    7.116992    9.347171
  18 O     8.0000    0    15.999    8.920849   12.071004    4.024984
  19 H     1.0000    0     1.008   10.678786   12.069794    4.610762
  20 H     1.0000    0     1.008    9.322473   11.562252    2.321207

--------------------------------
INTERNAL COORDINATES (ANGSTROEM)
--------------------------------
 O      0   0   0     0.000000000000     0.00000000     0.00000000
 H      1   0   0     0.966357329408     0.00000000     0.00000000
 H      1   2   0     0.957943267683   101.65972749     0.00000000
 O      2   1   3     4.200992909373    89.86279830   176.01430477
 H      4   2   1     0.974506350672    75.57662808    29.31070749
 H      4   2   1     0.982982041189   141.73476077   289.19035696
 O      1   2   3     2.768840549996    96.75246784   251.97620063
 H      7   1   2     0.918723635322    30.61755150   151.19342372
 H      7   1   2     0.947737384775   126.37454775   106.13931923
 O      8   7   1     2.472013321829   133.40817393   153.15130846
 H     10   8   7     0.958810186742   162.55050143   333.94806396
 H     10   8   7     0.941270707979    89.24561913   204.26524605
 O      5   4   2     1.792291882618   164.05613880   180.78973072
 H     13   5   4     0.977594563457   103.38482014   128.25444541
 H     13   5   4     0.901549418501   129.79576205   262.03749541
 O      1   2   3     2.848336550234   103.58855722   109.24952271
 H     16   1   2     0.940840085774    89.82370308   289.59901384
 H     16   1   2     0.977743473668    20.71956434    77.51107019
 O     14  13   5     2.314879259789   140.08529091   335.04463161
 H     19  14  13     0.980546621839   106.42704125    63.09717033
 H     19  14  13     0.964640331574   138.79905423   181.34636401

---------------------------
INTERNAL COORDINATES (A.U.)
---------------------------
 O      0   0   0     0.000000000000     0.00000000     0.00000000
 H      1   0   0     1.826150700088     0.00000000     0.00000000
 H      1   2   0     1.810250427755   101.65972749     0.00000000
 O      2   1   3     7.938726089260    89.86279830   176.01430477
 H      4   2   1     1.841550118537    75.57662808    29.31070749
 H      4   2   1     1.857566852410   141.73476077   289.19035696
 O      1   2   3     5.232350347988    96.75246784   251.97620063
 H      7   1   2     1.736136063520    30.61755150   151.19342372
 H      7   1   2     1.790964104103   126.37454775   106.13931923
 O      8   7   1     4.671428177662   133.40817393   153.15130846
 H     10   8   7     1.811888667356   162.55050143   333.94806396
 H     10   8   7     1.778743855963    89.24561913   204.26524605
 O      5   4   2     3.386940810199   164.05613880   180.78973072
 H     13   5   4     1.847385994943   103.38482014   128.25444541
 H     13   5   4     1.703681497163   129.79576205   262.03749541
 O      1   2   3     5.382576017181   103.58855722   109.24952271
 H     16   1   2     1.777930097929    89.82370308   289.59901384
 H     16   1   2     1.847667394461    20.71956434    77.51107019
 O     14  13   5     4.374487834095   140.08529091   335.04463161
 H     19  14  13     1.852964576817   106.42704125    63.09717033
 H     19  14  13     1.822906044411   138.79905423   181.34636401

---------------------
BASIS SET INFORMATION
---------------------
There are 2 groups of distinct atoms

 Group   1 Type O   : 7s4p1d contracted to 3s2p1d pattern {511/31/1}
 Group   2 Type H   : 4s1p contracted to 2s1p pattern {31/1}

Atom   0O    basis set group =>   1
Atom   1H    basis set group =>   2
Atom   2H    basis set group =>   2
Atom   3O    basis set group =>   1
Atom   4H    basis set group =>   2
Atom   5H    basis set group =>   2
Atom   6O    basis set group =>   1
Atom   7H    basis set group =>   2
Atom   8H    basis set group =>   2
Atom   9O    basis set group =>   1
Atom  10H    basis set group =>   2
Atom  11H    basis set group =>   2
Atom  12O    basis set group =>   1
Atom  13H    basis set group =>   2
Atom  14H    basis set group =>   2
Atom  15O    basis set group =>   1
Atom  16H    basis set group =>   2
Atom  17H    basis set group =>   2
Atom  18O    basis set group =>   1
Atom  19H    basis set group =>   2
Atom  20H    basis set group =>   2
[1615913179.945093] [comp0807:123223:0]            sys.c:618  UCX  ERROR shmget(size=2097152 flags=0xfb0) for mm_recv_desc failed: Operation not permitted, please check shared memory limits by 'ipcs -l'
[1615913179.950855] [comp0807:123221:0]            sys.c:618  UCX  ERROR shmget(size=2097152 flags=0xfb0) for mm_recv_desc failed: Operation not permitted, please check shared memory limits by 'ipcs -l'
[1615913179.960960] [comp0807:123224:0]            sys.c:618  UCX  ERROR shmget(size=2097152 flags=0xfb0) for mm_recv_desc failed: Operation not permitted, please check shared memory limits by 'ipcs -l'
[1615913179.974968] [comp0807:123222:0]            sys.c:618  UCX  ERROR shmget(size=2097152 flags=0xfb0) for mm_recv_desc failed: Operation not permitted, please check shared memory limits by 'ipcs -l'
[1615913179.988309] [comp0807:123221:0]            sys.c:618  UCX  ERROR shmget(size=2097152 flags=0xb80) for ucp_am_bufs failed: Operation not permitted, please check shared memory limits by 'ipcs -l'
[1615913179.993029] [comp0807:123223:0]            sys.c:618  UCX  ERROR shmget(size=2097152 flags=0xb80) for ucp_am_bufs failed: Operation not permitted, please check shared memory limits by 'ipcs -l'
[1615913179.993353] [comp0807:123222:0]            sys.c:618  UCX  ERROR shmget(size=2097152 flags=0xb80) for ucp_am_bufs failed: Operation not permitted, please check shared memory limits by 'ipcs -l'
[1615913179.993419] [comp0807:123224:0]            sys.c:618  UCX  ERROR shmget(size=2097152 flags=0xb80) for ucp_am_bufs failed: Operation not permitted, please check shared memory limits by 'ipcs -l'


           ************************************************************
           *        Program running with 4 parallel MPI-processes     *
           *              working on a common directory               *
           ************************************************************
------------------------------------------------------------------------------
                           ORCA GTO INTEGRAL CALCULATION
------------------------------------------------------------------------------

                         BASIS SET STATISTICS AND STARTUP INFO

 # of primitive gaussian shells          ...  154
 # of primitive gaussian functions       ...  266
 # of contracted shells                  ...   84
 # of contracted basis functions         ...  168
 Highest angular momentum                ...    2
 Maximum contraction depth               ...    5
 Integral package used                   ... LIBINT
 Integral threshhold            Thresh   ...  2.500e-11
 Primitive cut-off              TCut     ...  2.500e-12


------------------------------ INTEGRAL EVALUATION ----------------------------


 * One electron integrals 
 Pre-screening matrix                    ... done
 Shell pair data                         ... done (   0.001 sec)

[1615913181.127083] [comp0807:123242:0]            sys.c:618  UCX  ERROR shmget(size=2097152 flags=0xfb0) for mm_recv_desc failed: Operation not permitted, please check shared memory limits by 'ipcs -l'
[1615913181.149227] [comp0807:123244:0]            sys.c:618  UCX  ERROR shmget(size=2097152 flags=0xfb0) for mm_recv_desc failed: Operation not permitted, please check shared memory limits by 'ipcs -l'
[1615913181.156447] [comp0807:123243:0]            sys.c:618  UCX  ERROR shmget(size=2097152 flags=0xfb0) for mm_recv_desc failed: Operation not permitted, please check shared memory limits by 'ipcs -l'
[1615913181.165490] [comp0807:123245:0]            sys.c:618  UCX  ERROR shmget(size=2097152 flags=0xfb0) for mm_recv_desc failed: Operation not permitted, please check shared memory limits by 'ipcs -l'
[1615913181.173851] [comp0807:123244:0]            sys.c:618  UCX  ERROR shmget(size=2097152 flags=0xb80) for ucp_am_bufs failed: Operation not permitted, please check shared memory limits by 'ipcs -l'
[1615913181.170695] [comp0807:123242:0]            sys.c:618  UCX  ERROR shmget(size=2097152 flags=0xb80) for ucp_am_bufs failed: Operation not permitted, please check shared memory limits by 'ipcs -l'


           ************************************************************
           *        Program running with 4 parallel MPI-processes     *
           *              working on a common directory               *
           ************************************************************
-------------------------------------------------------------------------------
                                 ORCA SCF
-------------------------------------------------------------------------------

[1615913181.171239] [comp0807:123243:0]            sys.c:618  UCX  ERROR shmget(size=2097152 flags=0xb80) for ucp_am_bufs failed: Operation not permitted, please check shared memory limits by 'ipcs -l'
[1615913181.174427] [comp0807:123245:0]            sys.c:618  UCX  ERROR shmget(size=2097152 flags=0xb80) for ucp_am_bufs failed: Operation not permitted, please check shared memory limits by 'ipcs -l'
------------
SCF SETTINGS
------------
Hamiltonian:
 Density Functional     Method          .... DFT(GTOs)
 Exchange Functional    Exchange        .... PBE
   PBE kappa parameter   XKappa         ....  0.804000
   PBE mue parameter    XMuePBE         ....  0.219520
 Correlation Functional Correlation     .... PBE
   PBE beta parameter  CBetaPBE         ....  0.066725
 LDA part of GGA corr.  LDAOpt          .... PW91-LDA
 Gradients option       PostSCFGGA      .... off
 Hybrid DFT is turned on
   Fraction HF Exchange ScalHFX         ....  0.250000
   Scaling of DF-GGA-X  ScalDFX         ....  0.750000
   Scaling of DF-GGA-C  ScalDFC         ....  1.000000
   Scaling of DF-LDA-C  ScalLDAC        ....  1.000000
   Perturbative correction              ....  0.000000
   Density functional embedding theory  .... OFF
   NL short-range parameter             ....  6.900000


General Settings:
 Integral files         IntName         .... septamer8
 Hartree-Fock type      HFTyp           .... RHF
 Total Charge           Charge          ....    0
 Multiplicity           Mult            ....    1
 Number of Electrons    NEL             ....   70
 Basis Dimension        Dim             ....  168
 Nuclear Repulsion      ENuc            ....    363.8212493847 Eh

Convergence Acceleration:
 DIIS                   CNVDIIS         .... on
   Start iteration      DIISMaxIt       ....    12
   Startup error        DIISStart       ....  0.200000
   # of expansion vecs  DIISMaxEq       ....     5
   Bias factor          DIISBfac        ....   1.050
   Max. coefficient     DIISMaxC        ....  10.000
 Newton-Raphson         CNVNR           .... off
 SOSCF                  CNVSOSCF        .... on
   Start iteration      SOSCFMaxIt      ....   150
   Startup grad/error   SOSCFStart      ....  0.003300
 Level Shifting         CNVShift        .... on
   Level shift para.    LevelShift      ....    0.2500
   Turn off err/grad.   ShiftErr        ....    0.0010
 Zerner damping         CNVZerner       .... off
 Static damping         CNVDamp         .... on
   Fraction old density DampFac         ....    0.7000
   Max. Damping (<1)    DampMax         ....    0.9800
   Min. Damping (>=0)   DampMin         ....    0.0000
   Turn off err/grad.   DampErr         ....    0.1000
 Fernandez-Rico         CNVRico         .... off

SCF Procedure:
 Maximum # iterations   MaxIter         ....   125
 SCF integral mode      SCFMode         .... Direct
   Integral package                     .... LIBINT
 Reset frequency        DirectResetFreq ....    20
 Integral Threshold     Thresh          ....  2.500e-11 Eh
 Primitive CutOff       TCut            ....  2.500e-12 Eh

Convergence Tolerance:
 Convergence Check Mode ConvCheckMode   .... Total+1el-Energy
 Convergence forced     ConvForced      .... 0
 Energy Change          TolE            ....  1.000e-08 Eh
 1-El. energy change                    ....  1.000e-05 Eh
 Orbital Gradient       TolG            ....  1.000e-05
 Orbital Rotation angle TolX            ....  1.000e-05
 DIIS Error             TolErr          ....  5.000e-07


Diagonalization of the overlap matrix:
Smallest eigenvalue                        ... 2.101e-02
Time for diagonalization                   ...    0.005 sec
Threshold for overlap eigenvalues          ... 1.000e-08
Number of eigenvalues below threshold      ... 0
Time for construction of square roots      ...    0.002 sec
Total time needed                          ...    0.008 sec

-------------------
DFT GRID GENERATION
-------------------

General Integration Accuracy     IntAcc      ...  4.340
Radial Grid Type                 RadialGrid  ... Gauss-Chebyshev
Angular Grid (max. acc.)         AngularGrid ... Lebedev-110
Angular grid pruning method      GridPruning ... 3 (G Style)
Weight generation scheme         WeightScheme... Becke
Basis function cutoff            BFCut       ...    1.0000e-11
Integration weight cutoff        WCut        ...    1.0000e-14
Grids for H and He will be reduced by one unit

# of grid points (after initial pruning)     ...  23128 (   0.0 sec)
# of grid points (after weights+screening)   ...  21676 (   0.0 sec)
nearest neighbour list constructed           ...    0.0 sec
Grid point re-assignment to atoms done       ...    0.0 sec
Grid point division into batches done        ...    0.0 sec
Reduced shell lists constructed in    0.1 sec

Total number of grid points                  ...    21676
Total number of batches                      ...      347
Average number of points per batch           ...       62
Average number of grid points per atom       ...     1032
Average number of shells per batch           ...    48.98 (58.31%)
Average number of basis functions per batch  ...    86.82 (51.68%)
Average number of large shells per batch     ...    33.17 (67.73%)
Average number of large basis fcns per batch ...    56.83 (65.46%)
Maximum spatial batch extension              ...  15.89, 18.60, 20.95 au
Average spatial batch extension              ...   0.96,  0.87,  0.94 au

Time for grid setup =    0.125 sec

------------------------------
INITIAL GUESS: MODEL POTENTIAL
------------------------------
Loading Hartree-Fock densities                     ... done
Calculating cut-offs                               ... done
Setting up the integral package                    ... done
Initializing the effective Hamiltonian             ... done
Starting the Coulomb interaction                   ... done (   0.0 sec)
Reading the grid                                   ... done
Mapping shells                                     ... done
Starting the XC term evaluation                    ... done (   0.0 sec)
  promolecular density results
     # of electrons  =     69.989979675
     EX              =    -61.187381162
     EC              =     -2.253050907
     EX+EC           =    -63.440432069
Transforming the Hamiltonian                       ... done (   0.0 sec)
Diagonalizing the Hamiltonian                      ... done (   0.0 sec)
Back transforming the eigenvectors                 ... done (   0.0 sec)
Now organizing SCF variables                       ... done
                      ------------------
                      INITIAL GUESS DONE (   0.3 sec)
                      ------------------

--------------------
CPCM SOLVATION MODEL
--------------------
CPCM parameters:
  Epsilon                                         ...      78.3550
  Refrac                                          ...       1.3300
  Rsolv                                           ...       1.3000
  Surface type                                    ...    GEPOL SES
  Epsilon function type                           ...         CPCM
Solvent:                                     ... WATER
SMD-CDS solvent descriptors:
  Soln                                       ...    1.3328
  Soln25                                     ...    1.3323
  Sola                                       ...    0.0000
  Solb                                       ...    0.0000
  Solg                                       ...    0.0000
  Solc                                       ...    0.0000
  Solh                                       ...    0.0000
Radii:
 Radius for O  used is    2.8724 Bohr (=   1.5200 Ang.)
 Radius for H  used is    2.2677 Bohr (=   1.2000 Ang.)
Calculating surface                               ...        done! (  0.2s)
GEPOL surface points                              ...         1561
GEPOL Volume                                      ...    1031.3764
GEPOL Surface-area                                ...     669.8706
Calculating surface distance matrix               ...        done! (  0.0s)
Performing Cholesky decomposition & store         ...        done! (  0.1s)
Overall time for CPCM initialization              ...                 0.3s
--------------
SCF ITERATIONS
--------------
ITER       Energy         Delta-E        Max-DP      RMS-DP      [F,P]     Damp
               ***  Starting incremental Fock matrix formation  ***
  0   -533.5592935399   0.000000000000 0.08273175  0.00301173  0.2908531 0.7000
  1   -533.7965813207  -0.237287780813 0.04799168  0.00174668  0.1323970 0.7000
                               ***Turning on DIIS***
  2   -533.8840614182  -0.087480097496 0.06069102  0.00219075  0.0417187 0.0000
  3   -534.0253892674  -0.141327849230 0.02951818  0.00112621  0.0704673 0.0000
  4   -534.0544384359  -0.029049168468 0.00567241  0.00023037  0.0122796 0.0000
                      *** Initiating the SOSCF procedure ***
                           *** Shutting down DIIS ***
                      *** Re-Reading the Fockian *** 
                      *** Removing any level shift *** 
ITER      Energy       Delta-E        Grad      Rot      Max-DP    RMS-DP
  5   -534.05538388  -0.0009454489  0.000654  0.000654  0.001732  0.000067
               *** Restarting incremental Fock matrix formation ***
  6   -534.05542781  -0.0000439259  0.000335  0.000506  0.001485  0.000047
  7   -534.05542849  -0.0000006824  0.000439  0.000214  0.000820  0.000019
  8   -534.05543452  -0.0000060284  0.000025  0.000035  0.000097  0.000003
  9   -534.05543452   0.0000000054  0.000026  0.000014  0.000059  0.000001
                  ***Gradient check signals convergence***
              ***Rediagonalizing the Fockian in SOSCF/NRSCF***

               *****************************************************
               *                     SUCCESS                       *
               *           SCF CONVERGED AFTER  10 CYCLES          *
               *****************************************************

Setting up the final grid:

General Integration Accuracy     IntAcc      ...  4.670
Radial Grid Type                 RadialGrid  ... Gauss-Chebyshev
Angular Grid (max. acc.)         AngularGrid ... Lebedev-302
Angular grid pruning method      GridPruning ... 3 (G Style)
Weight generation scheme         WeightScheme... Becke
Basis function cutoff            BFCut       ...    1.0000e-11
Integration weight cutoff        WCut        ...    1.0000e-14
Grids for H and He will be reduced by one unit

# of grid points (after initial pruning)     ...  91000 (   0.0 sec)
# of grid points (after weights+screening)   ...  84027 (   0.1 sec)
nearest neighbour list constructed           ...    0.0 sec
Grid point re-assignment to atoms done       ...    0.0 sec
Grid point division into batches done        ...    0.2 sec
Reduced shell lists constructed in    0.4 sec

Total number of grid points                  ...    84027
Total number of batches                      ...     1323
Average number of points per batch           ...       63
Average number of grid points per atom       ...     4001
Average number of shells per batch           ...    43.79 (52.13%)
Average number of basis functions per batch  ...    76.23 (45.37%)
Average number of large shells per batch     ...    29.27 (66.84%)
Average number of large basis fcns per batch ...    49.42 (64.83%)
Maximum spatial batch extension              ...  18.05, 13.15, 14.86 au
Average spatial batch extension              ...   0.61,  0.59,  0.61 au

Final grid set up in    0.5 sec
Final integration                            ... done (   0.2 sec)
Change in XC energy                          ...     0.001468504
Integrated number of electrons               ...    69.999903288
Previous integrated no of electrons          ...    70.004652361

SMD CDS free energy correction energy :                 6.94926     Kcal/mol
Total Energy after SMD CDS correction =              -534.042891680 Eh

----------------
TOTAL SCF ENERGY
----------------

Total Energy       :         -534.04289168 Eh          -14532.04588 eV

Components:
Nuclear Repulsion  :          363.82124938 Eh            9900.07951 eV
Electronic Energy  :         -897.86414107 Eh          -24432.12538 eV
One Electron Energy:        -1461.07108657 Eh          -39757.76551 eV
Two Electron Energy:          563.20694550 Eh           15325.64013 eV
CPCM Dielectric    :           -0.07946626 Eh              -2.16239 eV
SMD CDS (Gcds)     :            0.01107435 Eh               0.30135 eV

Virial components:
Potential Energy   :        -1064.59784219 Eh          -28969.18005 eV
Kinetic Energy     :          530.55495051 Eh           14437.13417 eV
Virial Ratio       :            2.00657414


DFT components:
N(Alpha)           :       34.999951644090 electrons
N(Beta)            :       34.999951644090 electrons
N(Total)           :       69.999903288181 electrons
E(X)               :      -46.943340736924 Eh       
E(C)               :       -2.338555299952 Eh       
E(XC)              :      -49.281896036876 Eh       
DFET-embed. en.    :        0.000000000000 Eh       
CPCM Solvation Model Properties:
Surface-charge          :           -0.02576458
Charge-correction       :           -0.00016035 Eh              -0.00436 eV
Free-energy (cav+disp)  :            0.00412710 Eh               0.11230 eV
Corrected G(solv)       :         -534.03892493 Eh          -14531.93794 eV

---------------
SCF CONVERGENCE
---------------

  Last Energy change         ...   -2.2715e-08  Tolerance :   1.0000e-08
  Last MAX-Density change    ...    1.9246e-06  Tolerance :   1.0000e-07
  Last RMS-Density change    ...    7.9594e-08  Tolerance :   5.0000e-09
  Last Orbital Gradient      ...    5.2948e-07  Tolerance :   1.0000e-05
  Last Orbital Rotation      ...    1.3724e-06  Tolerance :   1.0000e-05

             **** THE GBW FILE WAS UPDATED (septamer8.gbw) ****
             **** DENSITY FILE WAS UPDATED (septamer8.scfp) ****
             **** ENERGY FILE WAS UPDATED (septamer8.en.tmp) ****
             **** THE GBW FILE WAS UPDATED (septamer8.gbw) ****
             **** DENSITY FILE WAS UPDATED (septamer8.scfp) ****
----------------
ORBITAL ENERGIES
----------------

  NO   OCC          E(Eh)            E(eV) 
   0   2.0000     -19.217383      -522.9316 
   1   2.0000     -19.203364      -522.5501 
   2   2.0000     -19.199097      -522.4340 
   3   2.0000     -19.198488      -522.4174 
   4   2.0000     -19.184487      -522.0364 
   5   2.0000     -19.181310      -521.9500 
   6   2.0000     -19.176662      -521.8235 
   7   2.0000      -1.037072       -28.2202 
   8   2.0000      -1.026505       -27.9326 
   9   2.0000      -1.025591       -27.9078 
  10   2.0000      -1.017529       -27.6884 
  11   2.0000      -0.995308       -27.0837 
  12   2.0000      -0.994209       -27.0538 
  13   2.0000      -0.980951       -26.6930 
  14   2.0000      -0.560996       -15.2655 
  15   2.0000      -0.552442       -15.0327 
  16   2.0000      -0.542006       -14.7487 
  17   2.0000      -0.527920       -14.3654 
  18   2.0000      -0.523618       -14.2484 
  19   2.0000      -0.515734       -14.0338 
  20   2.0000      -0.494011       -13.4427 
  21   2.0000      -0.417326       -11.3560 
  22   2.0000      -0.415082       -11.2950 
  23   2.0000      -0.411173       -11.1886 
  24   2.0000      -0.406056       -11.0493 
  25   2.0000      -0.388935       -10.5835 
  26   2.0000      -0.380972       -10.3668 
  27   2.0000      -0.359649        -9.7865 
  28   2.0000      -0.333793        -9.0830 
  29   2.0000      -0.327195        -8.9034 
  30   2.0000      -0.325268        -8.8510 
  31   2.0000      -0.316949        -8.6246 
  32   2.0000      -0.305029        -8.3002 
  33   2.0000      -0.298581        -8.1248 
  34   2.0000      -0.296007        -8.0548 
  35   0.0000       0.040931         1.1138 
  36   0.0000       0.082876         2.2552 
  37   0.0000       0.092883         2.5275 
  38   0.0000       0.109813         2.9882 
  39   0.0000       0.121188         3.2977 
  40   0.0000       0.138536         3.7698 
  41   0.0000       0.153016         4.1638 
  42   0.0000       0.163706         4.4547 
  43   0.0000       0.177490         4.8298 
  44   0.0000       0.200412         5.4535 
  45   0.0000       0.210246         5.7211 
  46   0.0000       0.231902         6.3104 
  47   0.0000       0.256572         6.9817 
  48   0.0000       0.281117         7.6496 
  49   0.0000       0.525480        14.2990 
  50   0.0000       0.551336        15.0026 
  51   0.0000       0.565112        15.3775 
  52   0.0000       0.587524        15.9873 
  53   0.0000       0.607230        16.5236 
  54   0.0000       0.631307        17.1787 
  55   0.0000       0.646269        17.5859 
  56   0.0000       0.651603        17.7310 
  57   0.0000       0.666130        18.1263 
  58   0.0000       0.669351        18.2140 
  59   0.0000       0.684194        18.6179 
  60   0.0000       0.700353        19.0576 
  61   0.0000       0.719367        19.5750 
  62   0.0000       0.753244        20.4968 
  63   0.0000       0.843555        22.9543 
  64   0.0000       0.880974        23.9725 
  65   0.0000       0.887591        24.1526 
  66   0.0000       0.906661        24.6715 
  67   0.0000       0.935629        25.4598 
  68   0.0000       0.949001        25.8236 
  69   0.0000       0.951149        25.8821 
  70   0.0000       0.957480        26.0543 
  71   0.0000       0.968025        26.3413 
  72   0.0000       0.972661        26.4675 
  73   0.0000       0.992390        27.0043 
  74   0.0000       1.001873        27.2624 
  75   0.0000       1.028097        27.9759 
  76   0.0000       1.041868        28.3507 
  77   0.0000       1.049308        28.5531 
  78   0.0000       1.057503        28.7761 
  79   0.0000       1.077904        29.3313 
  80   0.0000       1.087972        29.6052 
  81   0.0000       1.109825        30.1999 
  82   0.0000       1.119606        30.4660 
  83   0.0000       1.139907        31.0184 
  84   0.0000       1.149121        31.2692 
  85   0.0000       1.162640        31.6370 
  86   0.0000       1.182609        32.1804 
  87   0.0000       1.239789        33.7364 
  88   0.0000       1.261546        34.3284 
  89   0.0000       1.287454        35.0334 
  90   0.0000       1.303478        35.4694 
  91   0.0000       1.325184        36.0601 
  92   0.0000       1.349584        36.7240 
  93   0.0000       1.370530        37.2940 
  94   0.0000       1.381409        37.5901 
  95   0.0000       1.387622        37.7591 
  96   0.0000       1.394132        37.9363 
  97   0.0000       1.419418        38.6243 
  98   0.0000       1.430641        38.9297 
  99   0.0000       1.450546        39.4714 
 100   0.0000       1.493148        40.6306 
 101   0.0000       1.498884        40.7867 
 102   0.0000       1.511618        41.1332 
 103   0.0000       1.526029        41.5254 
 104   0.0000       1.545911        42.0664 
 105   0.0000       1.571127        42.7525 
 106   0.0000       1.592383        43.3309 
 107   0.0000       1.612215        43.8706 
 108   0.0000       1.645904        44.7873 
 109   0.0000       1.670958        45.4691 
 110   0.0000       1.692265        46.0489 
 111   0.0000       1.716182        46.6997 
 112   0.0000       1.799630        48.9704 
 113   0.0000       1.821969        49.5783 
 114   0.0000       1.849615        50.3306 
 115   0.0000       1.864137        50.7257 
 116   0.0000       1.876567        51.0640 
 117   0.0000       1.930197        52.5233 
 118   0.0000       1.976566        53.7851 
 119   0.0000       2.235068        60.8193 
 120   0.0000       2.238549        60.9140 
 121   0.0000       2.246359        61.1265 
 122   0.0000       2.256779        61.4101 
 123   0.0000       2.268867        61.7390 
 124   0.0000       2.280425        62.0535 
 125   0.0000       2.286531        62.2197 
 126   0.0000       2.325823        63.2889 
 127   0.0000       2.332778        63.4781 
 128   0.0000       2.363254        64.3074 
 129   0.0000       2.381295        64.7983 
 130   0.0000       2.407912        65.5226 
 131   0.0000       2.438566        66.3568 
 132   0.0000       2.471503        67.2530 
 133   0.0000       2.921943        79.5101 
 134   0.0000       2.958605        80.5077 
 135   0.0000       2.962237        80.6066 
 136   0.0000       2.972127        80.8757 
 137   0.0000       2.980173        81.0946 
 138   0.0000       2.987719        81.3000 
 139   0.0000       2.989975        81.3614 
 140   0.0000       3.001887        81.6855 
 141   0.0000       3.019164        82.1556 
 142   0.0000       3.024833        82.3099 
 143   0.0000       3.039076        82.6975 
 144   0.0000       3.050012        82.9950 
 145   0.0000       3.078270        83.7640 
 146   0.0000       3.091717        84.1299 
 147   0.0000       3.174278        86.3765 
 148   0.0000       3.186863        86.7189 
 149   0.0000       3.200272        87.0838 
 150   0.0000       3.214530        87.4718 
 151   0.0000       3.219249        87.6002 
 152   0.0000       3.239810        88.1597 
 153   0.0000       3.275030        89.1181 
 154   0.0000       3.494702        95.0957 
 155   0.0000       3.515255        95.6549 
 156   0.0000       3.557153        96.7950 
 157   0.0000       3.561668        96.9179 
 158   0.0000       3.586183        97.5850 
 159   0.0000       3.602582        98.0312 
 160   0.0000       3.636466        98.9533 
 161   0.0000       3.826920       104.1358 
 162   0.0000       3.844763       104.6213 
 163   0.0000       3.851186       104.7961 
 164   0.0000       3.874947       105.4427 
 165   0.0000       3.901106       106.1545 
 166   0.0000       3.939713       107.2051 
 167   0.0000       3.961275       107.7918 

                    ********************************
                    * MULLIKEN POPULATION ANALYSIS *
                    ********************************

-----------------------
MULLIKEN ATOMIC CHARGES
-----------------------
   0 O :   -0.297720
   1 H :    0.212796
   2 H :    0.207711
   3 O :   -0.449838
   4 H :    0.165669
   5 H :    0.205168
   6 O :   -0.319979
   7 H :    0.129181
   8 H :    0.196888
   9 O :   -0.335288
  10 H :    0.196196
  11 H :    0.172950
  12 O :   -0.330302
  13 H :    0.196471
  14 H :    0.178250
  15 O :   -0.414902
  16 H :    0.182984
  17 H :    0.171856
  18 O :   -0.381444
  19 H :    0.146661
  20 H :    0.166693
Sum of atomic charges:   -0.0000000

--------------------------------
MULLIKEN REDUCED ORBITAL CHARGES
--------------------------------
  0 O s       :     3.682531  s :     3.682531
      pz      :     1.505808  p :     4.605998
      px      :     1.533580
      py      :     1.566611
      dz2     :     0.000606  d :     0.009190
      dxz     :     0.003746
      dyz     :     0.000525
      dx2y2   :     0.001207
      dxy     :     0.003106
  1 H s       :     0.715721  s :     0.715721
      pz      :     0.028657  p :     0.071483
      px      :     0.023385
      py      :     0.019442
  2 H s       :     0.719743  s :     0.719743
      pz      :     0.022530  p :     0.072546
      px      :     0.021243
      py      :     0.028772
  3 O s       :     3.677235  s :     3.677235
      pz      :     1.845293  p :     4.764505
      px      :     1.713901
      py      :     1.205311
      dz2     :     0.000808  d :     0.008099
      dxz     :     0.001543
      dyz     :     0.001735
      dx2y2   :     0.000283
      dxy     :     0.003730
  4 H s       :     0.761329  s :     0.761329
      pz      :     0.018869  p :     0.073003
      px      :     0.023894
      py      :     0.030239
  5 H s       :     0.727706  s :     0.727706
      pz      :     0.017671  p :     0.067126
      px      :     0.017896
      py      :     0.031559
  6 O s       :     3.650399  s :     3.650399
      pz      :     1.502759  p :     4.659445
      px      :     1.754818
      py      :     1.401868
      dz2     :     0.003650  d :     0.010135
      dxz     :     0.001855
      dyz     :     0.000490
      dx2y2   :     0.003508
      dxy     :     0.000631
  7 H s       :     0.791548  s :     0.791548
      pz      :     0.019106  p :     0.079270
      px      :     0.021375
      py      :     0.038790
  8 H s       :     0.730181  s :     0.730181
      pz      :     0.033961  p :     0.072931
      px      :     0.022801
      py      :     0.016170
  9 O s       :     3.673195  s :     3.673195
      pz      :     1.322903  p :     4.652347
      px      :     1.685010
      py      :     1.644433
      dz2     :     0.000496  d :     0.009746
      dxz     :     0.001583
      dyz     :     0.004153
      dx2y2   :     0.001480
      dxy     :     0.002034
 10 H s       :     0.731625  s :     0.731625
      pz      :     0.025299  p :     0.072179
      px      :     0.027078
      py      :     0.019802
 11 H s       :     0.752843  s :     0.752843
      pz      :     0.032365  p :     0.074207
      px      :     0.018036
      py      :     0.023806
 12 O s       :     3.638252  s :     3.638252
      pz      :     1.325208  p :     4.683577
      px      :     1.767447
      py      :     1.590923
      dz2     :     0.001828  d :     0.008473
      dxz     :     0.000379
      dyz     :     0.002943
      dx2y2   :     0.001188
      dxy     :     0.002134
 13 H s       :     0.733914  s :     0.733914
      pz      :     0.036198  p :     0.069615
      px      :     0.018434
      py      :     0.014983
 14 H s       :     0.744507  s :     0.744507
      pz      :     0.024602  p :     0.077243
      px      :     0.024252
      py      :     0.028389
 15 O s       :     3.662454  s :     3.662454
      pz      :     1.857061  p :     4.743692
      px      :     1.585560
      py      :     1.301071
      dz2     :     0.001173  d :     0.008757
      dxz     :     0.001514
      dyz     :     0.000476
      dx2y2   :     0.000344
      dxy     :     0.005249
 16 H s       :     0.744609  s :     0.744609
      pz      :     0.019341  p :     0.072407
      px      :     0.024382
      py      :     0.028684
 17 H s       :     0.757372  s :     0.757372
      pz      :     0.021152  p :     0.070772
      px      :     0.020642
      py      :     0.028978
 18 O s       :     3.683755  s :     3.683755
      pz      :     1.325257  p :     4.688210
      px      :     1.455182
      py      :     1.907771
      dz2     :     0.003017  d :     0.009479
      dxz     :     0.001946
      dyz     :     0.000869
      dx2y2   :     0.002846
      dxy     :     0.000802
 19 H s       :     0.777937  s :     0.777937
      pz      :     0.017530  p :     0.075402
      px      :     0.040361
      py      :     0.017511
 20 H s       :     0.761863  s :     0.761863
      pz      :     0.034330  p :     0.071444
      px      :     0.016189
      py      :     0.020925


                     *******************************
                     * LOEWDIN POPULATION ANALYSIS *
                     *******************************

----------------------
LOEWDIN ATOMIC CHARGES
----------------------
   0 O :   -0.083458
   1 H :    0.112445
   2 H :    0.102488
   3 O :   -0.233045
   4 H :    0.034517
   5 H :    0.101873
   6 O :   -0.100207
   7 H :    0.015260
   8 H :    0.097553
   9 O :   -0.137583
  10 H :    0.101704
  11 H :    0.073765
  12 O :   -0.086412
  13 H :    0.087632
  14 H :    0.058395
  15 O :   -0.198521
  16 H :    0.074401
  17 H :    0.055126
  18 O :   -0.190507
  19 H :    0.046183
  20 H :    0.068390

-------------------------------
LOEWDIN REDUCED ORBITAL CHARGES
-------------------------------
  0 O s       :     3.414223  s :     3.414223
      pz      :     1.504312  p :     4.651574
      px      :     1.585196
      py      :     1.562066
      dz2     :     0.000904  d :     0.017661
      dxz     :     0.007355
      dyz     :     0.002509
      dx2y2   :     0.001273
      dxy     :     0.005620
  1 H s       :     0.709335  s :     0.709335
      pz      :     0.067456  p :     0.178220
      px      :     0.065831
      py      :     0.044933
  2 H s       :     0.714177  s :     0.714177
      pz      :     0.050858  p :     0.183335
      px      :     0.060109
      py      :     0.072368
  3 O s       :     3.427906  s :     3.427906
      pz      :     1.811157  p :     4.789695
      px      :     1.715104
      py      :     1.263434
      dz2     :     0.001202  d :     0.015444
      dxz     :     0.001695
      dyz     :     0.003663
      dx2y2   :     0.001002
      dxy     :     0.007881
  4 H s       :     0.756012  s :     0.756012
      pz      :     0.057054  p :     0.209472
      px      :     0.075923
      py      :     0.076494
  5 H s       :     0.726518  s :     0.726518
      pz      :     0.051109  p :     0.171609
      px      :     0.050879
      py      :     0.069621
  6 O s       :     3.376993  s :     3.376993
      pz      :     1.529165  p :     4.703572
      px      :     1.701510
      py      :     1.472897
      dz2     :     0.007216  d :     0.019642
      dxz     :     0.004296
      dyz     :     0.000065
      dx2y2   :     0.007548
      dxy     :     0.000516
  7 H s       :     0.766321  s :     0.766321
      pz      :     0.048295  p :     0.218419
      px      :     0.058775
      py      :     0.111348
  8 H s       :     0.716165  s :     0.716165
      pz      :     0.086919  p :     0.186282
      px      :     0.063600
      py      :     0.035762
  9 O s       :     3.408155  s :     3.408155
      pz      :     1.365127  p :     4.710684
      px      :     1.682124
      py      :     1.663433
      dz2     :     0.001571  d :     0.018744
      dxz     :     0.003928
      dyz     :     0.008748
      dx2y2   :     0.001602
      dxy     :     0.002894
 10 H s       :     0.716932  s :     0.716932
      pz      :     0.052351  p :     0.181364
      px      :     0.073037
      py      :     0.055977
 11 H s       :     0.735179  s :     0.735179
      pz      :     0.073683  p :     0.191056
      px      :     0.048493
      py      :     0.068880
 12 O s       :     3.359832  s :     3.359832
      pz      :     1.363227  p :     4.708809
      px      :     1.720446
      py      :     1.625136
      dz2     :     0.004764  d :     0.017771
      dxz     :     0.001616
      dyz     :     0.006051
      dx2y2   :     0.001280
      dxy     :     0.004060
 13 H s       :     0.734049  s :     0.734049
      pz      :     0.089421  p :     0.178319
      px      :     0.048261
      py      :     0.040637
 14 H s       :     0.730025  s :     0.730025
      pz      :     0.053441  p :     0.211579
      px      :     0.073245
      py      :     0.084893
 15 O s       :     3.404856  s :     3.404856
      pz      :     1.801705  p :     4.776640
      px      :     1.627304
      py      :     1.347631
      dz2     :     0.002167  d :     0.017024
      dxz     :     0.001734
      dyz     :     0.001685
      dx2y2   :     0.000223
      dxy     :     0.011216
 16 H s       :     0.733762  s :     0.733762
      pz      :     0.056331  p :     0.191837
      px      :     0.070256
      py      :     0.065249
 17 H s       :     0.754551  s :     0.754551
      pz      :     0.060405  p :     0.190323
      px      :     0.059682
      py      :     0.070236
 18 O s       :     3.433165  s :     3.433165
      pz      :     1.380718  p :     4.740083
      px      :     1.508058
      py      :     1.851306
      dz2     :     0.006636  d :     0.017259
      dxz     :     0.003418
      dyz     :     0.001727
      dx2y2   :     0.005150
      dxy     :     0.000328
 19 H s       :     0.752583  s :     0.752583
      pz      :     0.036248  p :     0.201234
      px      :     0.114943
      py      :     0.050042
 20 H s       :     0.747180  s :     0.747180
      pz      :     0.085636  p :     0.184430
      px      :     0.041409
      py      :     0.057385


                      *****************************
                      * MAYER POPULATION ANALYSIS *
                      *****************************

  NA   - Mulliken gross atomic population
  ZA   - Total nuclear charge
  QA   - Mulliken gross atomic charge
  VA   - Mayer's total valence
  BVA  - Mayer's bonded valence
  FA   - Mayer's free valence

  ATOM       NA         ZA         QA         VA         BVA        FA
  0 O      8.2977     8.0000    -0.2977     2.1824     2.1824    -0.0000
  1 H      0.7872     1.0000     0.2128     0.9892     0.9892    -0.0000
  2 H      0.7923     1.0000     0.2077     0.9911     0.9911    -0.0000
  3 O      8.4498     8.0000    -0.4498     1.9377     1.9377    -0.0000
  4 H      0.8343     1.0000     0.1657     1.0942     1.0942    -0.0000
  5 H      0.7948     1.0000     0.2052     0.9860     0.9860    -0.0000
  6 O      8.3200     8.0000    -0.3200     2.0912     2.0912     0.0000
  7 H      0.8708     1.0000     0.1292     1.1246     1.1246     0.0000
  8 H      0.8031     1.0000     0.1969     1.0040     1.0040     0.0000
  9 O      8.3353     8.0000    -0.3353     2.0718     2.0718    -0.0000
 10 H      0.8038     1.0000     0.1962     0.9976     0.9976    -0.0000
 11 H      0.8271     1.0000     0.1729     1.0290     1.0290    -0.0000
 12 O      8.3303     8.0000    -0.3303     2.1110     2.1110    -0.0000
 13 H      0.8035     1.0000     0.1965     1.0410     1.0410     0.0000
 14 H      0.8218     1.0000     0.1782     1.0175     1.0175     0.0000
 15 O      8.4149     8.0000    -0.4149     1.9677     1.9677    -0.0000
 16 H      0.8170     1.0000     0.1830     1.0086     1.0086    -0.0000
 17 H      0.8281     1.0000     0.1719     1.0789     1.0789     0.0000
 18 O      8.3814     8.0000    -0.3814     2.0303     2.0303    -0.0000
 19 H      0.8533     1.0000     0.1467     1.1049     1.1049    -0.0000
 20 H      0.8333     1.0000     0.1667     1.0520     1.0520    -0.0000

  Mayer bond orders larger than 0.100000
B(  0-O ,  1-H ) :   0.9650 B(  0-O ,  2-H ) :   0.9671 B(  0-O ,  7-H ) :   0.1079 
B(  0-O , 17-H ) :   0.1093 B(  3-O ,  4-H ) :   0.9344 B(  3-O ,  5-H ) :   0.9804 
B(  4-H , 12-O ) :   0.1498 B(  6-O ,  7-H ) :   0.9513 B(  6-O ,  8-H ) :   0.9815 
B(  6-O , 19-H ) :   0.1341 B(  9-O , 10-H ) :   0.9794 B(  9-O , 11-H ) :   0.9858 
B( 12-O , 13-H ) :   0.9438 B( 12-O , 14-H ) :   0.9965 B( 15-O , 16-H ) :   0.9958 
B( 15-O , 17-H ) :   0.9479 B( 18-O , 19-H ) :   0.9420 B( 18-O , 20-H ) :   0.9758 


-------
TIMINGS
-------

Total SCF time: 0 days 0 hours 0 min 9 sec 

Total time                  ....       9.777 sec
Sum of individual times     ....       9.280 sec  ( 94.9%)

Fock matrix formation       ....       8.465 sec  ( 86.6%)
  XC integration            ....       0.724 sec  (  8.5% of F)
    Basis function eval.    ....       0.325 sec  ( 44.9% of XC)
    Density eval.           ....       0.128 sec  ( 17.7% of XC)
    XC-Functional eval.     ....       0.075 sec  ( 10.3% of XC)
    XC-Potential eval.      ....       0.148 sec  ( 20.4% of XC)
Diagonalization             ....       0.022 sec  (  0.2%)
Density matrix formation    ....       0.004 sec  (  0.0%)
Population analysis         ....       0.008 sec  (  0.1%)
Initial guess               ....       0.165 sec  (  1.7%)
Orbital Transformation      ....       0.000 sec  (  0.0%)
Orbital Orthonormalization  ....       0.000 sec  (  0.0%)
DIIS solution               ....       0.007 sec  (  0.1%)
SOSCF solution              ....       0.010 sec  (  0.1%)
Grid generation             ....       0.599 sec  (  6.1%)


-------------------------------------------------------------------------------
                          DFT DISPERSION CORRECTION                            
                                                                               
                              DFTD3 V3.1  Rev 1                                
                          USING Becke-Johnson damping                          
-------------------------------------------------------------------------------
The PBE0 functional is recognized
Active option DFTDOPT                   ...         4   

molecular C6(AA) [au] = 2181.483206 


            DFT-D V3
 parameters
 s6 scaling factor         :     1.0000 
 a1 scaling factor         :     0.4145 
 s8 scaling factor         :     1.2177 
 a2 scaling factor         :     4.8593 
 ad hoc parameters k1-k3   :    16.0000     1.3333    -4.0000 

 Edisp/kcal,au: -5.383356107481  -0.008578923117 
 E6   /kcal   :  -3.765112397 
 E8   /kcal   :  -1.618243711 
 % E8         :  30.060127516 

-------------------------   ----------------
Dispersion correction           -0.008578923
-------------------------   ----------------


-------------------------   --------------------
FINAL SINGLE POINT ENERGY      -534.051470603470
-------------------------   --------------------

[1615913191.963337] [comp0807:123319:0]            sys.c:618  UCX  ERROR shmget(size=2097152 flags=0xfb0) for mm_recv_desc failed: Operation not permitted, please check shared memory limits by 'ipcs -l'
[1615913191.966589] [comp0807:123321:0]            sys.c:618  UCX  ERROR shmget(size=2097152 flags=0xfb0) for mm_recv_desc failed: Operation not permitted, please check shared memory limits by 'ipcs -l'
[1615913191.980093] [comp0807:123322:0]            sys.c:618  UCX  ERROR shmget(size=2097152 flags=0xfb0) for mm_recv_desc failed: Operation not permitted, please check shared memory limits by 'ipcs -l'
[1615913191.980614] [comp0807:123320:0]            sys.c:618  UCX  ERROR shmget(size=2097152 flags=0xfb0) for mm_recv_desc failed: Operation not permitted, please check shared memory limits by 'ipcs -l'
[1615913191.986904] [comp0807:123322:0]            sys.c:618  UCX  ERROR shmget(size=2097152 flags=0xb80) for ucp_am_bufs failed: Operation not permitted, please check shared memory limits by 'ipcs -l'
[1615913191.986934] [comp0807:123321:0]            sys.c:618  UCX  ERROR shmget(size=2097152 flags=0xb80) for ucp_am_bufs failed: Operation not permitted, please check shared memory limits by 'ipcs -l'
[1615913191.987387] [comp0807:123319:0]            sys.c:618  UCX  ERROR shmget(size=2097152 flags=0xb80) for ucp_am_bufs failed: Operation not permitted, please check shared memory limits by 'ipcs -l'


           ************************************************************
           *        Program running with 4 parallel MPI-processes     *
           *              working on a common directory               *
           ************************************************************
[1615913191.990101] [comp0807:123320:0]            sys.c:618  UCX  ERROR shmget(size=2097152 flags=0xb80) for ucp_am_bufs failed: Operation not permitted, please check shared memory limits by 'ipcs -l'
------------------------------------------------------------------------------
                         ORCA SCF GRADIENT CALCULATION
------------------------------------------------------------------------------

Gradient of the Kohn-Sham DFT energy:
Kohn-Sham wavefunction type      ... RKS
Hartree-Fock exchange scaling    ...    0.250
Number of operators              ...    1
Number of atoms                  ...   21
Basis set dimensions             ...  168
Integral neglect threshold       ... 2.5e-11
Integral primitive cutoff        ... 2.5e-12

Nuclear repulsion gradient       ... done
One Electron Gradient            ... done
Pre-screening matrix             ... done
Starting the two electron gradient:
Two electron gradient done
Exchange-correlation gradient    ... done
Dispersion correction            ... done

------------------
CARTESIAN GRADIENT
------------------

   1   O   :    0.005305362   -0.004990435   -0.004295143
   2   H   :    0.000522583   -0.003210488   -0.000479843
   3   H   :   -0.002968293    0.009113071    0.004665675
   4   O   :   -0.004263486   -0.015056055    0.001279062
   5   H   :    0.007753770   -0.005163030    0.001011443
   6   H   :   -0.002897538    0.020652992   -0.002593349
   7   O   :   -0.004342668   -0.054726985   -0.008014759
   8   H   :    0.003380841    0.062450172   -0.013588719
   9   H   :   -0.006826741   -0.005378011    0.018697861
  10   O   :   -0.007954887   -0.014414030    0.019312215
  11   H   :    0.004740565    0.001394642    0.006061147
  12   H   :    0.001527204    0.012120095   -0.024948637
  13   O   :   -0.043060622   -0.067631017    0.047112104
  14   H   :    0.003932861    0.003170411   -0.009956417
  15   H   :    0.033645043    0.064810138   -0.031631566
  16   O   :    0.025486519   -0.026074107    0.004886841
  17   H   :   -0.021539280    0.013719050   -0.002205796
  18   H   :   -0.003978703    0.012383650    0.000210343
  19   O   :   -0.006538858   -0.000528545   -0.005197765
  20   H   :    0.010307685   -0.008736190   -0.004463172
  21   H   :    0.007768643    0.006094672    0.004138474

Difference to translation invariance:
           :    0.0000000000   -0.0000000000   -0.0000000000

Norm of the cartesian gradient     ...    0.1664935373
RMS gradient                       ...    0.0209762140
MAX gradient                       ...    0.0676310171

-------
TIMINGS
-------

Total SCF gradient time            ...        2.937 sec

One electron gradient       ....       0.028 sec  (  0.9%)
Prescreening matrices       ....       0.014 sec  (  0.5%)
Two electron gradient       ....       1.195 sec  ( 40.7%)
XC gradient                 ....       0.997 sec  ( 34.0%)
CPCM gradient               ....       0.515 sec  ( 17.5%)
   A-Matrix (El+Nuc)        ....       0.054 sec  (  1.9%)
   Potential                ....       0.460 sec  ( 15.7%)
------------------------------------------------------------------------------
                         ORCA GEOMETRY RELAXATION STEP
------------------------------------------------------------------------------

Reading the OPT-File                    .... done
Getting information on internals        .... done
Copying old internal coords+grads       .... done
Making the new internal coordinates     .... (new redundants).... done
Validating the new internal coordinates .... (new redundants).... done
Calculating the B-matrix                .... done
Calculating the G,G- and P matrices     .... done
Transforming gradient to internals      .... done
Projecting the internal gradient        .... done
Number of atoms                         ....  21
Number of internal coordinates          .... 216
Current Energy                          ....  -534.051470603 Eh
Current gradient norm                   ....     0.166493537 Eh/bohr
Maximum allowed component of the step   ....  0.300
Current trust radius                    ....  0.300
Evaluating the initial hessian          ....  (Almloef) done
Projecting the Hessian                  .... done
Forming the augmented Hessian           .... done
Diagonalizing the augmented Hessian     .... done
Last element of RFO vector              ....  0.950325589
Lowest eigenvalues of augmented Hessian:
 -0.024158832  0.000943914  0.001294614  0.002328530  0.003327836
Length of the computed step             ....  0.327527295
Warning: the length of the step is outside the trust region - taking restricted step instead
The input lambda is                     ....    -0.024159
   iter:   1  x=   -0.028480  g=    3.997839 f(x)=     0.017274
   iter:   2  x=   -0.029539  g=    2.757735 f(x)=     0.002922
   iter:   3  x=   -0.029585  g=    2.540933 f(x)=     0.000117
   iter:   4  x=   -0.029585  g=    2.532078 f(x)=     0.000000
   iter:   5  x=   -0.029585  g=    2.532063 f(x)=     0.000000
   iter:   6  x=   -0.029585  g=    2.532063 f(x)=     0.000000
The output lambda is                    ....    -0.029585 (6 iterations)
The final length of the internal step   ....  0.300000000
Converting the step to cartesian space:
 Initial RMS(Int)=    0.0204124145
Transforming coordinates:
 Iter   0:  RMS(Cart)=    0.0465557953 RMS(Int)=    0.0203520915
 Iter   1:  RMS(Cart)=    0.0006819602 RMS(Int)=    0.0004251526
 Iter   2:  RMS(Cart)=    0.0000259208 RMS(Int)=    0.0000150843
 Iter   3:  RMS(Cart)=    0.0000011164 RMS(Int)=    0.0000006205
 Iter   4:  RMS(Cart)=    0.0000000612 RMS(Int)=    0.0000000384
done
Storing new coordinates                 .... done

                                .--------------------.
          ----------------------|Geometry convergence|-------------------------
          Item                value                   Tolerance       Converged
          ---------------------------------------------------------------------
          RMS gradient        0.0073674061            0.0005000000      NO
[...]
     24       0.025353   0.003512  -0.036050   0.001440   0.021762   0.410537
     25      -0.000919   0.000835  -0.010081   0.000364  -0.004836  -0.068397
     26      -0.050551  -0.007416   0.076499  -0.002919  -0.036220  -0.685271
     27      -0.001717  -0.007229  -0.000714   0.000876  -0.000108  -0.000238
     28       0.003463   0.011552   0.001203  -0.002444  -0.000035  -0.000099
     29      -0.012027  -0.044723  -0.003742   0.009176  -0.000008  -0.000012
     30      -0.013889  -0.039152  -0.002076   0.017254   0.001801   0.003895
     31      -0.003785  -0.011800  -0.000529   0.005550   0.000673   0.001457
     32      -0.007536  -0.027840  -0.002227   0.007144   0.000354   0.000791
     33       0.040180   0.150481   0.012850  -0.031345  -0.000053  -0.000280
     34      -0.045757  -0.163307  -0.014942   0.032095  -0.000112   0.000056
     35       0.195134   0.725377   0.061886  -0.156043  -0.000205  -0.000578
     36       0.004005   0.002410   0.002285   0.025214   0.000019   0.000021
     37       0.004087  -0.010310  -0.003059  -0.054168   0.000622  -0.000098
     38      -0.016733   0.006628  -0.002331   0.002476   0.000396  -0.000072
     39      -0.052510   0.024001  -0.007567   0.010515  -0.000143  -0.000163
     40      -0.095744   0.029409  -0.015617  -0.028405   0.001892  -0.000381
     41       0.274167  -0.098445   0.042137   0.014078  -0.006006   0.001159
     42      -0.011871  -0.054630  -0.028175  -0.402746   0.003593  -0.000718
     43       0.033492   0.128639   0.062907   0.880392  -0.009069   0.001689
     44      -0.008196  -0.007448  -0.004249  -0.045337   0.000713  -0.000101
     45      -0.003524   0.006731   0.006947  -0.006919  -0.000032  -0.000564
     46      -0.001553   0.004765   0.003498  -0.005077   0.000005   0.001158
     47      -0.000834   0.001822   0.001890  -0.000111   0.000004  -0.000948
     48       0.000280   0.004095   0.001306  -0.009901  -0.000026   0.001298
     49      -0.010046  -0.001704   0.014788   0.021679   0.000292  -0.023994
     50       0.007099   0.009194  -0.006748  -0.013252  -0.000096   0.013867
     51       0.055922  -0.116988  -0.114193   0.113695   0.000556   0.007671
     52       0.034617  -0.069011  -0.071399   0.068871  -0.000239   0.005381
     53       0.011965  -0.022753  -0.023003   0.021381   0.000128   0.001715
     54      -0.048671   0.009544  -0.021099   0.001888  -0.000146   0.001009
     55      -0.011597  -0.032835  -0.012127   0.000946  -0.000048   0.000519
     56      -0.008936  -0.010455  -0.006534  -0.000220   0.000032   0.000291
     57       0.756387  -0.077403   0.349925  -0.028745   0.002474  -0.017339
     58       0.305971  -0.045503   0.134796  -0.011704   0.001329  -0.005893
     59       0.184897  -0.021538   0.085675  -0.005680   0.000383  -0.004018
     60      -0.000521  -0.076982  -0.015416   0.000384   0.000024   0.000464
     61      -0.133812   0.558976   0.051497  -0.000182  -0.000487  -0.002119
     62      -0.051255   0.185050   0.015206   0.001620  -0.000342  -0.000692
                  60         61         62    
      0       0.043237   0.002215   0.004216
      1      -0.011193  -0.000568  -0.000648
      2       0.022584   0.001162   0.002303
      3      -0.001618   0.000127   0.002348
      4       0.016264   0.000730  -0.001869
      5       0.025254   0.001234  -0.000326
      6      -0.681855  -0.035190  -0.065043
      7       0.155468   0.008038   0.015340
      8      -0.384944  -0.019868  -0.036542
      9       0.000166  -0.000024  -0.000002
     10       0.002074   0.000025   0.000320
     11      -0.001478  -0.000026  -0.000210
     12       0.002326   0.000406   0.000710
     13       0.001757   0.000282   0.000200
     14      -0.000236   0.000198  -0.000033
     15      -0.007737  -0.000097  -0.001133
     16      -0.031126  -0.000388  -0.004740
     17       0.025389   0.000318   0.003779
     18       0.017076   0.000639   0.000560
     19       0.000885   0.000051   0.000360
     20      -0.033601  -0.001303  -0.001533
     21       0.027908   0.001221   0.002605
     22      -0.062932  -0.002679  -0.008042
     23       0.032979   0.001546   0.005801
     24      -0.299733  -0.011458  -0.011515
     25       0.050822   0.001951   0.002113
     26       0.499215   0.019041   0.018988
     27      -0.002358   0.056872  -0.004401
     28      -0.000857   0.020066  -0.001132
     29      -0.000536   0.015091  -0.002614
     30       0.038108  -0.914259   0.065384
     31       0.014244  -0.342127   0.024693
     32       0.007449  -0.177735   0.012078
     33      -0.000855   0.011823   0.004865
     34      -0.000427   0.022081  -0.006814
     35       0.000759  -0.057513   0.029455
     36       0.000035   0.000112  -0.000863
     37      -0.000215  -0.000209   0.001782
     38       0.000010  -0.000015  -0.000146
     39       0.000380  -0.000237  -0.000394
     40      -0.000090   0.000216   0.000140
     41       0.000034   0.000340   0.001264
     42      -0.001246  -0.001959   0.014720
     43       0.003217   0.003499  -0.028782
     44      -0.000241   0.000420   0.001182
     45      -0.001158  -0.000390  -0.000327
     46       0.003644  -0.004037  -0.054740
     47      -0.002649   0.001804   0.029915
     48       0.003899  -0.004290  -0.053667
     49      -0.069281   0.059245   0.853884
     50       0.040108  -0.035274  -0.497049
     51       0.015364   0.010134   0.054115
     52       0.012097   0.004828   0.011777
     53       0.002735   0.002480   0.021397
     54      -0.000720  -0.000016  -0.000033
     55      -0.000313  -0.001358   0.000079
     56      -0.000209  -0.000425   0.000005
     57       0.012029   0.003408   0.000302
     58       0.003952   0.000757   0.000002
     59       0.003043   0.000568   0.000199
     60      -0.000215  -0.002559   0.000206
     61       0.000867   0.021844  -0.001161
     62       0.000482   0.005702  -0.000169


-----------
IR SPECTRUM
-----------

 Mode    freq (cm**-1)   T**2         TX         TY         TZ
-------------------------------------------------------------------
   7:        15.56   14.558366  ( -1.052602  -1.780591  -3.206226)
   8:        49.29   19.317204  ( -0.614893  -3.433866  -2.673513)
   9:        57.22    3.185845  ( -1.269204   0.503179  -1.149686)
  10:        79.70    1.516570  ( -0.831658   0.075228  -0.905127)
  11:        96.71    2.022976  ( -0.592134   1.143871   0.603252)
  12:       172.88   76.380090  (  6.082006  -3.646421  -5.108122)
  13:       218.52   30.189221  (  3.443890   4.197279   0.843619)
  14:       231.13   26.876944  (  4.659081  -2.134933   0.782285)
  15:       234.00   45.958739  ( -1.078946   2.650945   6.145495)
  16:       241.83   11.830615  (  0.777913   0.069805   3.349716)
  17:       251.00  101.556058  ( -1.252774   9.292667   3.692283)
  18:       258.90   46.755777  (  6.527603   1.734923  -1.065936)
  19:       265.62   43.780270  ( -5.403442  -1.318050  -3.584108)
  20:       276.29   58.010156  (  7.382024   0.115549  -1.871503)
  21:       286.51  136.199503  (  3.407326   9.923012   5.111111)
  22:       301.30  156.617523  (-10.557546  -0.264750   6.714585)
  23:       305.39   17.006524  (  0.444290   2.640743  -3.136177)
  24:       326.17  113.064892  ( -0.691299  -9.948249  -3.690438)
  25:       363.65  184.919933  ( -6.570413   6.690729   9.848033)
  26:       375.84  171.789209  (  1.029952 -10.752322  -7.424013)
  27:       397.50  322.783466  (  6.856354 -12.375279  11.073678)
  28:       451.41  104.868195  ( -1.331447  -6.786791   7.552147)
  29:       499.76  185.083437  (-11.457920  -7.001199   2.186942)
  30:       535.60   61.139335  (  2.294087   7.151569   2.175213)
  31:       617.78   27.273083  (  3.573945   0.538708  -3.769588)
  32:       642.77   20.799096  ( -0.978589  -3.660659  -2.537920)
  33:       712.87   71.153571  ( -8.275634   1.614443   0.247048)
  34:       723.29  126.871023  (  8.529215   1.795784   7.134331)
  35:       749.60  191.777226  (  5.277004 -12.019136   4.412577)
  36:       835.24  468.414962  ( -5.544081 -17.657038 -11.220836)
  37:       842.62  253.979634  (  9.714546  12.175927  -3.369574)
  38:       916.80  249.394428  ( -8.123368  -0.229648  13.540775)
  39:       945.44  244.413871  (  5.048671  -0.028676 -14.796080)
  40:      1029.78  156.799367  (-11.971570  -3.590617  -0.767041)
  41:      1079.28  111.781796  (  6.316589  -5.192331   6.702403)
  42:      1596.92  109.566241  ( -1.533053  -3.852382  -9.611199)
  43:      1602.40   62.872882  ( -6.616092   3.097214  -3.083419)
  44:      1644.35  147.007223  ( 11.269575   0.211057  -4.467589)
  45:      1646.17  128.878290  ( -4.594630   9.155093  -4.894073)
  46:      1666.87   90.226088  (  4.038328  -2.813637   8.124127)
  47:      1678.60   57.108222  (  6.944456  -2.957337  -0.370014)
  48:      1704.17  159.117280  ( -7.096965   6.122334   8.442002)
  49:      3080.97  866.120170  ( 25.199040 -14.147313  -5.566157)
  50:      3201.35  1922.601198  ( -7.732614 -26.606952 -33.983496)
  51:      3292.11  824.546208  (-21.699137 -11.504234  14.877710)
  52:      3320.66  1042.361340  ( 30.004486  10.552785   5.543545)
  53:      3409.06  1462.855665  ( 17.431391  32.087516 -11.375130)
  54:      3435.48  1472.910832  ( 28.199351  -6.160824  25.293313)
  55:      3472.35  807.092361  ( -2.888538  12.210070  25.488486)
  56:      3516.78  781.604558  ( -1.333197  25.448101 -11.498752)
  57:      3584.40  749.199007  (-12.015427  24.184475  -4.465388)
  58:      3856.78  136.440700  (  3.237436   8.815363  -6.946156)
  59:      3869.31  129.466493  ( -3.210501   2.455869 -10.636159)
  60:      3871.74  139.308033  (-11.181458   0.959099   3.655564)
  61:      3872.85  119.104524  ( -9.669287  -1.714757  -4.761200)
  62:      3885.79  153.190477  (  1.736876  11.337973  -4.650172)

The first frequency considered to be a vibration is 7
The total number of vibrations considered is 56


--------------------------
THERMOCHEMISTRY AT 298.15K
--------------------------

Temperature         ... 298.15 K
Pressure            ... 1.00 atm
Total Mass          ... 126.10 AMU

Throughout the following assumptions are being made:
  (1) The electronic state is orbitally nondegenerate
  (2) There are no thermally accessible electronically excited states
  (3) Hindered rotations indicated by low frequency modes are not
      treated as such but are treated as vibrations and this may
      cause some error
  (4) All equations used are the standard statistical mechanics
      equations for an ideal gas
  (5) All vibrations are strictly harmonic

freq.      15.56  E(vib)   ...       0.57 
freq.      49.29  E(vib)   ...       0.52 
freq.      57.22  E(vib)   ...       0.51 
freq.      79.70  E(vib)   ...       0.49 
freq.      96.71  E(vib)   ...       0.46 
freq.     172.88  E(vib)   ...       0.38 
freq.     218.52  E(vib)   ...       0.33 
freq.     231.13  E(vib)   ...       0.32 
freq.     234.00  E(vib)   ...       0.32 
freq.     241.83  E(vib)   ...       0.31 
freq.     251.00  E(vib)   ...       0.30 
freq.     258.90  E(vib)   ...       0.30 
freq.     265.62  E(vib)   ...       0.29 
freq.     276.29  E(vib)   ...       0.28 
freq.     286.51  E(vib)   ...       0.27 
freq.     301.30  E(vib)   ...       0.26 
freq.     305.39  E(vib)   ...       0.26 
freq.     326.17  E(vib)   ...       0.24 
freq.     363.65  E(vib)   ...       0.22 
freq.     375.84  E(vib)   ...       0.21 
freq.     397.50  E(vib)   ...       0.20 
freq.     451.41  E(vib)   ...       0.16 
freq.     499.76  E(vib)   ...       0.14 
freq.     535.60  E(vib)   ...       0.12 
freq.     617.78  E(vib)   ...       0.09 
freq.     642.77  E(vib)   ...       0.09 
freq.     712.87  E(vib)   ...       0.07 
freq.     723.29  E(vib)   ...       0.07 
freq.     749.60  E(vib)   ...       0.06 
freq.     835.24  E(vib)   ...       0.04 
freq.     842.62  E(vib)   ...       0.04 
freq.     916.80  E(vib)   ...       0.03 
freq.     945.44  E(vib)   ...       0.03 
freq.    1029.78  E(vib)   ...       0.02 
freq.    1079.28  E(vib)   ...       0.02 
freq.    1596.92  E(vib)   ...       0.00 
freq.    1602.40  E(vib)   ...       0.00 
freq.    1644.35  E(vib)   ...       0.00 
freq.    1646.17  E(vib)   ...       0.00 
freq.    1666.87  E(vib)   ...       0.00 
freq.    1678.60  E(vib)   ...       0.00 
freq.    1704.17  E(vib)   ...       0.00 
freq.    3080.97  E(vib)   ...       0.00 
freq.    3201.35  E(vib)   ...       0.00 
freq.    3292.11  E(vib)   ...       0.00 
freq.    3320.66  E(vib)   ...       0.00 
freq.    3409.06  E(vib)   ...       0.00 
freq.    3435.48  E(vib)   ...       0.00 
freq.    3472.35  E(vib)   ...       0.00 
freq.    3516.78  E(vib)   ...       0.00 
freq.    3584.40  E(vib)   ...       0.00 
freq.    3856.78  E(vib)   ...       0.00 
freq.    3869.31  E(vib)   ...       0.00 
freq.    3871.74  E(vib)   ...       0.00 
freq.    3872.85  E(vib)   ...       0.00 
freq.    3885.79  E(vib)   ...       0.00 

------------
INNER ENERGY
------------

The inner energy is: U= E(el) + E(ZPE) + E(vib) + E(rot) + E(trans)
    E(el)   - is the total energy from the electronic structure calculation
              = E(kin-el) + E(nuc-el) + E(el-el) + E(nuc-nuc)
    E(ZPE)  - the the zero temperature vibrational energy from the frequency calculation
    E(vib)  - the the finite temperature correction to E(ZPE) due to population
              of excited vibrational states
    E(rot)  - is the rotational thermal energy
    E(trans)- is the translational thermal energy

Summary of contributions to the inner energy U:
Electronic energy                ...   -534.12858470 Eh
Zero point energy                ...      0.17449926 Eh     109.50 kcal/mol
Thermal vibrational correction   ...      0.01285334 Eh       8.07 kcal/mol
Thermal rotational correction    ...      0.00141627 Eh       0.89 kcal/mol
Thermal translational correction ...      0.00141627 Eh       0.89 kcal/mol
-----------------------------------------------------------------------
Total thermal energy                   -533.93839956 Eh


Summary of corrections to the electronic energy:
(perhaps to be used in another calculation)
Total thermal correction                  0.01568589 Eh       9.84 kcal/mol
Non-thermal (ZPE) correction              0.17449926 Eh     109.50 kcal/mol
-----------------------------------------------------------------------
Total correction                          0.19018514 Eh     119.34 kcal/mol


--------
ENTHALPY
--------

The enthalpy is H = U + kB*T
                kB is Boltzmann's constant
Total free energy                 ...   -533.93839956 Eh 
Thermal Enthalpy correction       ...      0.00094421 Eh       0.59 kcal/mol
-----------------------------------------------------------------------
Total Enthalpy                    ...   -533.93745535 Eh


Note: Only C1 symmetry has been detected, increase convergence thresholds 
      if your molecule has a higher symmetry. Symmetry factor of 1.0 is   
      used for the rotational entropy correction. 
 

Note: Rotational entropy computed according to Herzberg 
Infrared and Raman Spectra, Chapter V,1, Van Nostrand Reinhold, 1945 
Point Group:  C1, Symmetry Number:   1  
Rotational constants in cm-1:     0.047045     0.035750     0.032811 

Vibrational entropy computed according to the QRRHO of S. Grimme
Chem.Eur.J. 2012 18 9955


-------
ENTROPY
-------

The entropy contributions are T*S = T*(S(el)+S(vib)+S(rot)+S(trans))
     S(el)   - electronic entropy
     S(vib)  - vibrational entropy
     S(rot)  - rotational entropy
     S(trans)- translational entropy
The entropies will be listed as mutliplied by the temperature to get
units of energy

Electronic entropy                ...      0.00000000 Eh      0.00 kcal/mol
Vibrational entropy               ...      0.02281764 Eh     14.32 kcal/mol
Rotational entropy                ...      0.01413958 Eh      8.87 kcal/mol
Translational entropy             ...      0.01919974 Eh     12.05 kcal/mol
-----------------------------------------------------------------------
Final entropy term                ...      0.05615696 Eh     35.24 kcal/mol

In case the symmetry of your molecule has not been determined correctly
or in case you have a reason to use a different symmetry number we print 
out the resulting rotational entropy values for sn=1,12 :
 --------------------------------------------------------
|  sn= 1 | S(rot)=       0.01413958 Eh      8.87 kcal/mol|
|  sn= 2 | S(rot)=       0.01348513 Eh      8.46 kcal/mol|
|  sn= 3 | S(rot)=       0.01310229 Eh      8.22 kcal/mol|
|  sn= 4 | S(rot)=       0.01283067 Eh      8.05 kcal/mol|
|  sn= 5 | S(rot)=       0.01261998 Eh      7.92 kcal/mol|
|  sn= 6 | S(rot)=       0.01244784 Eh      7.81 kcal/mol|
|  sn= 7 | S(rot)=       0.01230229 Eh      7.72 kcal/mol|
|  sn= 8 | S(rot)=       0.01217621 Eh      7.64 kcal/mol|
|  sn= 9 | S(rot)=       0.01206501 Eh      7.57 kcal/mol|
|  sn=10 | S(rot)=       0.01196553 Eh      7.51 kcal/mol|
|  sn=11 | S(rot)=       0.01187554 Eh      7.45 kcal/mol|
|  sn=12 | S(rot)=       0.01179338 Eh      7.40 kcal/mol|
 --------------------------------------------------------


-------------------
GIBBS FREE ENERGY
-------------------

The Gibbs free energy is G = H - T*S

Total enthalpy                    ...   -533.93745535 Eh 
Total entropy correction          ...     -0.05615696 Eh    -35.24 kcal/mol
-----------------------------------------------------------------------
Final Gibbs free energy         ...   -533.99361231 Eh

For completeness - the Gibbs free energy minus the electronic energy
G-E(el)                           ...      0.13497239 Eh     84.70 kcal/mol

[1615914383.579510] [comp0807:132442:0]            sys.c:618  UCX  ERROR shmget(size=2097152 flags=0xfb0) for mm_recv_desc failed: Operation not permitted, please check shared memory limits by 'ipcs -l'
[1615914383.597450] [comp0807:132441:0]            sys.c:618  UCX  ERROR shmget(size=2097152 flags=0xfb0) for mm_recv_desc failed: Operation not permitted, please check shared memory limits by 'ipcs -l'
[1615914383.599994] [comp0807:132440:0]            sys.c:618  UCX  ERROR shmget(size=2097152 flags=0xfb0) for mm_recv_desc failed: Operation not permitted, please check shared memory limits by 'ipcs -l'
[1615914383.601446] [comp0807:132443:0]            sys.c:618  UCX  ERROR shmget(size=2097152 flags=0xfb0) for mm_recv_desc failed: Operation not permitted, please check shared memory limits by 'ipcs -l'
[1615914383.629300] [comp0807:132443:0]            sys.c:618  UCX  ERROR shmget(size=2097152 flags=0xb80) for ucp_am_bufs failed: Operation not permitted, please check shared memory limits by 'ipcs -l'
[1615914383.629854] [comp0807:132442:0]            sys.c:618  UCX  ERROR shmget(size=2097152 flags=0xb80) for ucp_am_bufs failed: Operation not permitted, please check shared memory limits by 'ipcs -l'
[1615914383.630444] [comp0807:132440:0]            sys.c:618  UCX  ERROR shmget(size=2097152 flags=0xb80) for ucp_am_bufs failed: Operation not permitted, please check shared memory limits by 'ipcs -l'
[1615914383.643250] [comp0807:132441:0]            sys.c:618  UCX  ERROR shmget(size=2097152 flags=0xb80) for ucp_am_bufs failed: Operation not permitted, please check shared memory limits by 'ipcs -l'

Timings for individual modules:

Sum of individual times         ...     1181.099 sec (=  19.685 min)
GTO integral calculation        ...       81.435 sec (=   1.357 min)   6.9 %
SCF iterations                  ...      537.952 sec (=   8.966 min)  45.5 %
SCF Gradient evaluation         ...      283.538 sec (=   4.726 min)  24.0 %
Geometry relaxation             ...       23.710 sec (=   0.395 min)   2.0 %
Analytical frequency calculation...      254.464 sec (=   4.241 min)  21.5 %
                             ****ORCA TERMINATED NORMALLY****
TOTAL RUN TIME: 0 days 0 hours 20 minutes 4 seconds 728 msec
