
                                 *****************
                                 * O   R   C   A *
                                 *****************

           --- An Ab Initio, DFT and Semiempirical electronic structure package ---

                  #######################################################
                  #                        -***-                        #
                  #          Department of theory and spectroscopy      #
                  #               Directorship: Frank Neese             #
                  #        Max Planck Institute fuer Kohlenforschung    #
                  #                Kaiser Wilhelm Platz 1               #
                  #                 D-45470 Muelheim/Ruhr               #
                  #                      Germany                        #
                  #                                                     #
                  #                  All rights reserved                #
                  #                        -***-                        #
                  #######################################################


                         Program Version 4.2.1 -  RELEASE  -


 With contributions from (in alphabetic order):
   Daniel Aravena         : Magnetic Suceptibility
   Michael Atanasov       : Ab Initio Ligand Field Theory (pilot matlab implementation)
   Alexander A. Auer      : GIAO ZORA, VPT2
   Ute Becker             : Parallelization
   Giovanni Bistoni       : ED, misc. LED, open-shell LED, HFLD
   Martin Brehm           : Molecular dynamics
   Dmytro Bykov           : SCF Hessian
   Vijay G. Chilkuri      : MRCI spin determinant printing, contributions to CSF-ICE
   Dipayan Datta          : RHF DLPNO-CCSD density
   Achintya Kumar Dutta   : EOM-CC, STEOM-CC
   Dmitry Ganyushin       : Spin-Orbit,Spin-Spin,Magnetic field MRCI
   Miquel Garcia          : C-PCM Hessian, Gaussian charge scheme
   Yang Guo               : DLPNO-NEVPT2, CIM, IAO-localization
   Andreas Hansen         : Spin unrestricted coupled pair/coupled cluster methods
   Benjamin Helmich-Paris : CASSCF linear response (MC-RPA)
   Lee Huntington         : MR-EOM, pCC
   Robert Izsak           : Overlap fitted RIJCOSX, COSX-SCS-MP3, EOM
   Christian Kollmar      : KDIIS, OOCD, Brueckner-CCSD(T), CCSD density
   Simone Kossmann        : Meta GGA functionals, TD-DFT gradient, OOMP2, MP2 Hessian
   Martin Krupicka        : AUTO-CI
   Lucas Lang             : DCDCAS
   Dagmar Lenk            : GEPOL surface, SMD
   Dimitrios Liakos       : Extrapolation schemes; Compound Job, initial MDCI parallelization
   Dimitrios Manganas     : Further ROCIS development; embedding schemes
   Dimitrios Pantazis     : SARC Basis sets
   Taras Petrenko         : DFT Hessian,TD-DFT gradient, ASA, ECA, R-Raman, ABS, FL, XAS/XES, NRVS
   Peter Pinski           : DLPNO-MP2, DLPNO-MP2 Gradient
   Christoph Reimann      : Effective Core Potentials
   Marius Retegan         : Local ZFS, SOC
   Christoph Riplinger    : Optimizer, TS searches, QM/MM, DLPNO-CCSD(T), (RO)-DLPNO pert. Triples
   Tobias Risthaus        : Range-separated hybrids, TD-DFT gradient, RPA, STAB
   Michael Roemelt        : Original ROCIS implementation
   Masaaki Saitow         : Open-shell DLPNO-CCSD energy and density
   Barbara Sandhoefer     : DKH picture change effects
   Avijit Sen             : IP-ROCIS
   Kantharuban Sivalingam : CASSCF convergence, NEVPT2, FIC-MRCI
   Bernardo de Souza      : ESD, SOC TD-DFT
   Georgi Stoychev        : AutoAux, RI-MP2 NMR
   Willem Van den Heuvel  : Paramagnetic NMR
   Boris Wezisla          : Elementary symmetry handling
   Frank Wennmohs         : Technical directorship


 We gratefully acknowledge several colleagues who have allowed us to
 interface, adapt or use parts of their codes:
   Stefan Grimme, W. Hujo, H. Kruse,             : VdW corrections, initial TS optimization,
                  C. Bannwarth                     DFT functionals, gCP, sTDA/sTD-DF
   Ed Valeev, F. Pavosevic, A. Kumar             : LibInt (2-el integral package), F12 methods
   Garnet Chan, S. Sharma, J. Yang, R. Olivares  : DMRG
   Ulf Ekstrom                                   : XCFun DFT Library
   Mihaly Kallay                                 : mrcc  (arbitrary order and MRCC methods)
   Andreas Klamt, Michael Diedenhofen            : otool_cosmo (COSMO solvation model)
   Jiri Pittner, Ondrej Demel                    : Mk-CCSD
   Frank Weinhold                                : gennbo (NPA and NBO analysis)
   Christopher J. Cramer and Donald G. Truhlar   : smd solvation model
   Lars Goerigk                                  : TD-DFT with DH, B97 family of functionals
   V. Asgeirsson, H. Jonsson                     : NEB implementation
   FAccTs GmbH                                   : IRC, NEB, NEB-TS, Multilevel, MM, QM/MM, CI optimization
   S Lehtola, MJT Oliveira, MAL Marques          : LibXC Library


 Your calculation uses the libint2 library for the computation of 2-el integrals
 For citations please refer to: http://libint.valeyev.net

 Your ORCA version has been built with support for libXC version: 4.2.3
 For citations please refer to: https://tddft.org/programs/libxc/

 This ORCA versions uses:
   CBLAS   interface :  Fast vector & matrix operations
   LAPACKE interface :  Fast linear algebra routines
   SCALAPACK package :  Parallel linear algebra routines




***************************************
The coordinates will be read from file: septamer1.xyz
***************************************


Your calculation utilizes the atom-pairwise dispersion correction
with the Becke-Johnson damping scheme (D3BJ)
Cite in your paper:
S.Grimme, S.Ehrlich, L.Goerigk, J Comput Chem, (2011), 32, 1456–1465 
S.Grimme, J.Antony, S.Ehrlich and H.Krieg, J.Chem.Phys., 132, (2010), 154104 
   

Your calculation utilizes the SMD solvation module
Please cite in your paper:
A.V. Marenich, C.J. Cramer, D.G. Truhlar J. Phys. Chem. B, 113, (2009), 6378 

----- Orbital basis set information -----
Your calculation utilizes the basis: def2-SVP
   F. Weigend and R. Ahlrichs, Phys. Chem. Chem. Phys. 7, 3297 (2005).

================================================================================
                                        WARNINGS
                       Please study these warnings very carefully!
================================================================================


WARNING: Geometry Optimization
  ===> : Switching off AutoStart
         For restart on a previous wavefunction, please use MOREAD

INFO   : the flag for use of LIBINT has been found!

================================================================================
                                       INPUT FILE
================================================================================
NAME = septamer1.inp
|  1> ! PBE0 D3BJ def2-SVP LooseOpt Freq CPCM(water) PAL4
|  2> %geom MaxIter 500 end
|  3> %maxcore 4000
|  4> %cpcm  
|  5>     smd true
|  6>     SMDsolvent "water"
|  7> end
|  8> *xyzfile 0 1 septamer1.xyz
|  9> 
| 10>                          ****END OF INPUT****
================================================================================

                       *****************************
                       * Geometry Optimization Run *
                       *****************************

Geometry optimization settings:
Update method            Update   .... BFGS
Choice of coordinates    CoordSys .... Z-matrix Internals
Initial Hessian          InHess   .... Almoef's Model

Convergence Tolerances:
Energy Change            TolE     ....  3.0000e-05 Eh
Max. Gradient            TolMAXG  ....  2.0000e-03 Eh/bohr
RMS Gradient             TolRMSG  ....  5.0000e-04 Eh/bohr
Max. Displacement        TolMAXD  ....  1.0000e-02 bohr
RMS Displacement         TolRMSD  ....  7.0000e-03 bohr
Strict Convergence                ....  False
------------------------------------------------------------------------------
                        ORCA OPTIMIZATION COORDINATE SETUP
------------------------------------------------------------------------------

The optimization will be done in new redundant internal coordinates
Making redundant internal coordinates   ...  (new redundants) done
Evaluating the initial hessian          ...  (Almloef) done
Evaluating the coordinates              ...  done
Calculating the B-matrix                .... done
Calculating the G-matrix                .... done
Diagonalizing the G-matrix              .... done
Small eigenvalue found = 1.788e-02
The first mode is                       ....   71
The number of degrees of freedom        ....   57

    -----------------------------------------------------------------
                    Redundant Internal Coordinates


    -----------------------------------------------------------------
         Definition                    Initial Value    Approx d2E/dq
    -----------------------------------------------------------------
      1. B(H   1,O   0)                  0.9745         0.492973   
      2. B(H   2,O   0)                  0.9830         0.477860   
      3. B(H   4,O   3)                  0.9187         0.605091   
      4. B(H   5,O   3)                  0.9477         0.543915   
      5. B(O   6,H   4)                  2.4720         0.002012   
      6. B(H   7,O   6)                  0.9588         0.522234   
      7. B(H   8,H   4)                  2.6335         0.000238   
      8. B(H   8,O   6)                  0.9413         0.556991   
      9. B(O   9,H   1)                  1.7923         0.024440   
     10. B(H  10,O   9)                  0.9776         0.487411   
     11. B(H  10,H   1)                  2.2314         0.001041   
     12. B(H  11,O   9)                  0.9015         0.644497   
     13. B(O  12,H   1)                  3.9925         0.000008   
     14. B(O  12,H   8)                  3.6597         0.000026   
     15. B(O  12,O   9)                  3.6155         0.000141   
     16. B(O  12,H  11)                  3.3639         0.000076   
     17. B(O  12,H  10)                  3.5246         0.000042   
     18. B(H  13,O  12)                  0.9408         0.557873   
     19. B(H  13,H   8)                  3.9370         0.000002   
     20. B(H  14,O   0)                  4.0271         0.000007   
     21. B(H  14,H  11)                  3.3683         0.000016   
     22. B(H  14,H  10)                  3.1875         0.000031   
     23. B(H  14,O  12)                  0.9777         0.487145   
     24. B(H  14,O   9)                  3.3687         0.000075   
     25. B(H  14,H   8)                  3.1890         0.000031   
     26. B(H  14,O   6)                  3.9654         0.000008   
     27. B(H  14,H   4)                  3.6256         0.000006   
     28. B(H  14,H   1)                  3.4214         0.000013   
     29. B(H  16,O   0)                  1.6713         0.038115   
     30. B(H  16,O  15)                  1.0271         0.406404   
     31. B(H  16,H   2)                  2.0161         0.002296   
     32. B(H  17,O  15)                  1.0064         0.438435   
     33. B(H  17,O   3)                  1.8512         0.019684   
     34. B(O  18,O   6)                  2.8609         0.002256   
     35. B(O  18,H  14)                  3.9930         0.000008   
     36. B(H  19,O  18)                  0.9805         0.482154   
     37. B(H  19,H   8)                  2.9280         0.000081   
     38. B(H  19,O   6)                  2.7310         0.000777   
     39. B(H  19,H  14)                  3.6291         0.000006   
     40. B(H  19,H   4)                  1.7533         0.006030   
     41. B(H  19,O   3)                  1.7995         0.023803   
     42. B(H  20,H   8)                  2.8105         0.000124   
     43. B(H  20,H   7)                  2.5964         0.000272   
     44. B(H  20,O  18)                  0.9646         0.511168   
     45. B(H  20,O   6)                  2.3017         0.003762   
     46. A(H   1,O   0,H  16)          117.6255         0.216334   
     47. A(H   1,O   0,H   2)          107.5154         0.314688   
     48. A(H   2,O   0,H  16)           95.3280         0.215440   
     49. A(O   0,H   1,H  10)          160.4441         0.134603   
     50. A(O   0,H   1,O   9)          164.0561         0.204149   
     51. A(O   9,H   1,H  10)           25.2270         0.112104   
     52. A(O   0,H   2,H  16)           55.6295         0.143161   
     53. A(H   4,O   3,H  17)          119.8768         0.203851   
     54. A(H   5,O   3,H  17)          130.5137         0.201113   
     55. A(H   4,O   3,H  19)           72.2459         0.208898   
     56. A(H   4,O   3,H   5)          102.7496         0.332433   
     57. A(H  17,O   3,H  19)           92.5111         0.144219   
     58. A(H   5,O   3,H  19)          125.5520         0.206040   
     59. A(O   3,H   4,H  19)           77.8168         0.160089   
     60. A(H   7,O   6,O  18)          105.9403         0.167269   
     61. A(H   7,O   6,H   8)          101.7721         0.325722   
     62. A(H   8,O   6,O  18)           96.3560         0.168419   
     63. A(H   1,O   9,H  10)          103.3848         0.203854   
     64. A(H  11,O   9,O  12)           66.7978         0.132832   
     65. A(H   1,O   9,O  12)           88.4813         0.109900   
     66. A(H  10,O   9,O  12)           76.8794         0.130146   
     67. A(H   1,O   9,H  11)          129.7958         0.211351   
     68. A(H  10,O   9,H  11)          111.6555         0.329879   
     69. A(H   1,H  10,O   9)           51.3882         0.134486   
     70. A(H  13,O  12,H  14)          107.2695         0.322108   
     71. A(O   9,O  12,H  14)           67.7315         0.130141   
     72. A(O   9,O  12,H  13)          172.7343         0.131423   
     73. A(H  16,O  15,H  17)           97.9163         0.300867   
     74. A(O   0,H  16,H   2)           29.0425         0.119558   
     75. A(H   2,H  16,O  15)          150.5142         0.141211   
     76. A(O   0,H  16,O  15)          170.6409         0.210889   
     77. A(O   3,H  17,O  15)          169.7395         0.195774   
     78. A(H  19,O  18,H  20)           94.9489         0.317008   
     79. A(O   6,O  18,H  20)           46.2393         0.166891   
     80. A(O   6,O  18,H  19)           72.4913         0.165867   
     81. A(O   3,H  19,H   4)           29.9373         0.123179   
     82. A(H   4,H  19,O  18)          149.1819         0.156527   
     83. A(O   3,H  19,O  18)          153.1168         0.202890   
     84. D(H  10,H   1,O   0,H  16)    -54.0197         0.420739   
     85. D(O   9,H   1,O   0,H  16)   -144.9165         0.420739   
     86. D(H  10,H   1,O   0,H   2)     51.9463         0.420739   
     87. D(O   9,H   1,O   0,H   2)    -38.9505         0.420739   
     88. D(H  16,H   2,O   0,H   1)   -121.1832         0.308559   
     89. D(H  19,H   4,O   3,H  17)     82.4793         0.718198   
     90. D(H  19,H   4,O   3,H   5)   -123.6078         0.718198   
     91. D(O  12,O   9,H   1,H  10)     76.1294         0.001976   
     92. D(O  12,O   9,H   1,O   0)   -155.6162         0.001976   
     93. D(H  11,O   9,H   1,H  10)    133.7830         0.001976   
     94. D(H  10,O   9,H   1,O   0)    128.2544         0.001976   
     95. D(H  11,O   9,H   1,O   0)    -97.9625         0.001976   
     96. D(H   1,H  10,O   9,O  12)    -85.2139         0.408638   
     97. D(H   1,H  10,O   9,H  11)   -143.3566         0.408638   
     98. D(O   9,H  10,H   1,O   0)   -139.8767         0.001514   
     99. D(H  14,O  12,O   9,H   1)    -38.2331         0.001500   
    100. D(H  14,O  12,O   9,H  11)   -173.3043         0.001500   
    101. D(H  14,O  12,O   9,H  10)     65.8872         0.001500   
    102. D(H  13,O  12,O   9,H   1)      9.2884         0.001500   
    103. D(H  13,O  12,O   9,H  11)   -125.7827         0.001500   
    104. D(H  13,O  12,O   9,H  10)    113.4087         0.001500   
    105. D(O   0,H  16,O  15,H  17)    172.3107         0.184622   
    106. D(O  15,H  16,H   2,O   0)   -160.8070         0.001547   
    107. D(H   2,H  16,O   0,H   1)    112.9525         0.002485   
    108. D(O  15,H  16,O   0,H   2)     95.7109         0.002485   
    109. D(H   2,H  16,O  15,H  17)   -108.7593         0.184622   
    110. D(O  15,H  16,O   0,H   1)   -151.3365         0.002485   
    111. D(O   3,H  17,O  15,H  16)    -65.3174         0.196975   
    112. D(O  15,H  17,O   3,H  19)     73.3646         0.001727   
    113. D(O  15,H  17,O   3,H   5)   -143.2168         0.001727   
    114. D(O  15,H  17,O   3,H   4)      2.4401         0.001727   
    115. D(H  20,O  18,O   6,H   8)   -164.7772         0.001501   
    116. D(H  20,O  18,O   6,H   7)    -60.5774         0.001501   
    117. D(H  19,O  18,O   6,H   8)     79.9231         0.001501   
    118. D(H  19,O  18,O   6,H   7)   -175.8770         0.001501   
    119. D(H   4,H  19,O  18,O   6)     12.6533         0.421918   
    120. D(H   4,H  19,O  18,H  20)    -28.2971         0.421918   
    121. D(O   3,H  19,O  18,H  20)     35.9687         0.421918   
    122. D(O  18,H  19,H   4,O   3)    125.2940         0.002030   
    123. D(H   4,H  19,O   3,H  17)   -120.6311         0.001950   
    124. D(H   4,H  19,O   3,H   5)     93.2102         0.001950   
    125. D(O   3,H  19,O  18,O   6)     76.9190         0.421918   
    126. D(O  18,H  19,O   3,H  17)    127.0006         0.001950   
    127. D(O  18,H  19,O   3,H   5)    -19.1582         0.001950   
    128. D(O  18,H  19,O   3,H   4)   -112.3683         0.001950   
    -----------------------------------------------------------------

Number of atoms                         .... 21
Number of degrees of freedom            .... 128

         *************************************************************
         *                GEOMETRY OPTIMIZATION CYCLE   1            *
         *************************************************************
---------------------------------
CARTESIAN COORDINATES (ANGSTROEM)
---------------------------------
  O      5.123840    7.671090    5.672860
  H      4.574490    6.941540    5.332810
  H      4.719700    8.513250    5.366770
  O      7.416010    6.660260    2.220580
  H      7.281350    5.755740    2.308690
  H      7.864370    6.724860    1.388110
  O      6.002810    4.093200    1.000200
  H      5.353680    3.685870    0.423980
  H      5.944080    3.552280    1.768280
  O      3.197130    5.915310    4.820910
  H      3.436910    5.652450    3.910360
  H      2.779870    5.248110    5.260830
  O      5.294200    3.014400    5.329440
  H      5.918050    2.334220    5.512050
  H      5.788230    3.766150    4.946310
  O      7.560020    8.154440    4.639890
  H      6.603100    7.933690    4.940640
  H      7.520840    7.728220    3.729020
  O      4.720710    6.387700    2.129930
  H      5.650970    6.387060    2.439910
  H      4.933240    6.118480    1.228330

----------------------------
CARTESIAN COORDINATES (A.U.)
----------------------------
  NO LB      ZA    FRAG     MASS         X           Y           Z
   0 O     8.0000    0    15.999    9.682654   14.496259   10.720152
   1 H     1.0000    0     1.008    8.644533   13.117610   10.077550
   2 H     1.0000    0     1.008    8.918940   16.087711   10.141726
   3 O     8.0000    0    15.999   14.014228   12.586067    4.196288
   4 H     1.0000    0     1.008   13.759757   10.876772    4.362792
   5 H     1.0000    0     1.008   14.861506   12.708144    2.623148
   6 O     8.0000    0    15.999   11.343667    7.735027    1.890104
   7 H     1.0000    0     1.008   10.116989    6.965285    0.801206
   8 H     1.0000    0     1.008   11.232683    6.712836    3.341565
   9 O     8.0000    0    15.999    6.041700   11.178316    9.110200
  10 H     1.0000    0     1.008    6.494819   10.681582    7.389509
  11 H     1.0000    0     1.008    5.253193    9.917491    9.941528
  12 O     8.0000    0    15.999   10.004588    5.696390   10.071182
  13 H     1.0000    0     1.008   11.183494    4.411037   10.416265
  14 H     1.0000    0     1.008   10.938170    7.116992    9.347171
  15 O     8.0000    0    15.999   14.286367   15.409658    8.768121
  16 H     1.0000    0     1.008   12.478051   14.992501    9.336457
  17 H     1.0000    0     1.008   14.212328   14.604219    7.046827
  18 O     8.0000    0    15.999    8.920849   12.071004    4.024984
  19 H     1.0000    0     1.008   10.678786   12.069794    4.610762
  20 H     1.0000    0     1.008    9.322473   11.562252    2.321207

--------------------------------
INTERNAL COORDINATES (ANGSTROEM)
--------------------------------
 O      0   0   0     0.000000000000     0.00000000     0.00000000
 H      1   0   0     0.974506350672     0.00000000     0.00000000
 H      1   2   0     0.982982041189   107.51535590     0.00000000
 O      2   1   3     4.223663092826    85.85555079    97.60972749
 H      4   2   1     0.918723635322    84.04714831   141.72082696
 H      4   2   1     0.947737384775   163.93958186   257.81500681
 O      5   4   2     2.472013321829   133.40817393   102.64170739
 H      7   5   4     0.958810186742   162.55050143   333.94806396
 H      7   5   4     0.941270707979    89.24561913   204.26524605
 O      2   1   3     1.792291882618   164.05613880   321.04952122
 H     10   2   1     0.977594563457   103.38482014   128.25444541
 H     10   2   1     0.901549418501   129.79576205   262.03749541
 O     12  10   2     3.363929702758    98.94182616   293.24163021
 H     13  12  10     0.940840085774   168.41272833   149.28344656
 H     13  12  10     0.977743473668    81.90191894     6.25696520
 O      1   2   3     2.689912124178   120.73501655   252.04825259
 H     16   1   2     1.027072057550     5.79912504    29.63206992
 H     16   1   2     1.006420745861   103.66240632    21.79338174
 O     11  10   2     2.314879259789   140.08529091   335.04463161
 H     19  11  10     0.980546621839   106.42704125    63.09717033
 H     19  11  10     0.964640331574   138.79905423   181.34636401

---------------------------
INTERNAL COORDINATES (A.U.)
---------------------------
 O      0   0   0     0.000000000000     0.00000000     0.00000000
 H      1   0   0     1.841550118537     0.00000000     0.00000000
 H      1   2   0     1.857566852410   107.51535590     0.00000000
 O      2   1   3     7.981566527392    85.85555079    97.60972749
 H      4   2   1     1.736136063520    84.04714831   141.72082696
 H      4   2   1     1.790964104103   163.93958186   257.81500681
 O      5   4   2     4.671428177662   133.40817393   102.64170739
 H      7   5   4     1.811888667356   162.55050143   333.94806396
 H      7   5   4     1.778743855963    89.24561913   204.26524605
 O      2   1   3     3.386940810199   164.05613880   321.04952122
 H     10   2   1     1.847385994943   103.38482014   128.25444541
 H     10   2   1     1.703681497163   129.79576205   262.03749541
 O     12  10   2     6.356905871976    98.94182616   293.24163021
 H     13  12  10     1.777930097929   168.41272833   149.28344656
 H     13  12  10     1.847667394461    81.90191894     6.25696520
 O      1   2   3     5.083197239011   120.73501655   252.04825259
 H     16   1   2     1.940884908573     5.79912504    29.63206992
 H     16   1   2     1.901859585175   103.66240632    21.79338174
 O     11  10   2     4.374487834095   140.08529091   335.04463161
 H     19  11  10     1.852964576817   106.42704125    63.09717033
 H     19  11  10     1.822906044411   138.79905423   181.34636401

---------------------
BASIS SET INFORMATION
---------------------
There are 2 groups of distinct atoms

 Group   1 Type O   : 7s4p1d contracted to 3s2p1d pattern {511/31/1}
 Group   2 Type H   : 4s1p contracted to 2s1p pattern {31/1}

Atom   0O    basis set group =>   1
Atom   1H    basis set group =>   2
Atom   2H    basis set group =>   2
Atom   3O    basis set group =>   1
Atom   4H    basis set group =>   2
Atom   5H    basis set group =>   2
Atom   6O    basis set group =>   1
Atom   7H    basis set group =>   2
Atom   8H    basis set group =>   2
Atom   9O    basis set group =>   1
Atom  10H    basis set group =>   2
Atom  11H    basis set group =>   2
Atom  12O    basis set group =>   1
Atom  13H    basis set group =>   2
Atom  14H    basis set group =>   2
Atom  15O    basis set group =>   1
Atom  16H    basis set group =>   2
Atom  17H    basis set group =>   2
Atom  18O    basis set group =>   1
Atom  19H    basis set group =>   2
Atom  20H    basis set group =>   2
[1615912655.075567] [comp0800:178524:0]            sys.c:618  UCX  ERROR shmget(size=2097152 flags=0xfb0) for mm_recv_desc failed: Operation not permitted, please check shared memory limits by 'ipcs -l'
[1615912655.075549] [comp0800:178526:0]            sys.c:618  UCX  ERROR shmget(size=2097152 flags=0xfb0) for mm_recv_desc failed: Operation not permitted, please check shared memory limits by 'ipcs -l'
[1615912655.112384] [comp0800:178525:0]            sys.c:618  UCX  ERROR shmget(size=2097152 flags=0xfb0) for mm_recv_desc failed: Operation not permitted, please check shared memory limits by 'ipcs -l'
[1615912655.111705] [comp0800:178527:0]            sys.c:618  UCX  ERROR shmget(size=2097152 flags=0xfb0) for mm_recv_desc failed: Operation not permitted, please check shared memory limits by 'ipcs -l'
[1615912655.121361] [comp0800:178524:0]            sys.c:618  UCX  ERROR shmget(size=2097152 flags=0xb80) for ucp_am_bufs failed: Operation not permitted, please check shared memory limits by 'ipcs -l'
[1615912655.126474] [comp0800:178525:0]            sys.c:618  UCX  ERROR shmget(size=2097152 flags=0xb80) for ucp_am_bufs failed: Operation not permitted, please check shared memory limits by 'ipcs -l'
[1615912655.126543] [comp0800:178527:0]            sys.c:618  UCX  ERROR shmget(size=2097152 flags=0xb80) for ucp_am_bufs failed: Operation not permitted, please check shared memory limits by 'ipcs -l'
[1615912655.127644] [comp0800:178526:0]            sys.c:618  UCX  ERROR shmget(size=2097152 flags=0xb80) for ucp_am_bufs failed: Operation not permitted, please check shared memory limits by 'ipcs -l'


           ************************************************************
           *        Program running with 4 parallel MPI-processes     *
           *              working on a common directory               *
           ************************************************************
------------------------------------------------------------------------------
                           ORCA GTO INTEGRAL CALCULATION
------------------------------------------------------------------------------

                         BASIS SET STATISTICS AND STARTUP INFO

 # of primitive gaussian shells          ...  154
 # of primitive gaussian functions       ...  266
 # of contracted shells                  ...   84
 # of contracted basis functions         ...  168
 Highest angular momentum                ...    2
 Maximum contraction depth               ...    5
 Integral package used                   ... LIBINT
 Integral threshhold            Thresh   ...  2.500e-11
 Primitive cut-off              TCut     ...  2.500e-12


------------------------------ INTEGRAL EVALUATION ----------------------------


 * One electron integrals 
 Pre-screening matrix                    ... done
 Shell pair data                         ... done (   0.001 sec)

[1615912656.268854] [comp0800:178545:0]            sys.c:618  UCX  ERROR shmget(size=2097152 flags=0xfb0) for mm_recv_desc failed: Operation not permitted, please check shared memory limits by 'ipcs -l'
[1615912656.269878] [comp0800:178547:0]            sys.c:618  UCX  ERROR shmget(size=2097152 flags=0xfb0) for mm_recv_desc failed: Operation not permitted, please check shared memory limits by 'ipcs -l'
[1615912656.298960] [comp0800:178546:0]            sys.c:618  UCX  ERROR shmget(size=2097152 flags=0xfb0) for mm_recv_desc failed: Operation not permitted, please check shared memory limits by 'ipcs -l'
[1615912656.300747] [comp0800:178548:0]            sys.c:618  UCX  ERROR shmget(size=2097152 flags=0xfb0) for mm_recv_desc failed: Operation not permitted, please check shared memory limits by 'ipcs -l'
[1615912656.309678] [comp0800:178545:0]            sys.c:618  UCX  ERROR shmget(size=2097152 flags=0xb80) for ucp_am_bufs failed: Operation not permitted, please check shared memory limits by 'ipcs -l'
[1615912656.310512] [comp0800:178546:0]            sys.c:618  UCX  ERROR shmget(size=2097152 flags=0xb80) for ucp_am_bufs failed: Operation not permitted, please check shared memory limits by 'ipcs -l'


           ************************************************************
           *        Program running with 4 parallel MPI-processes     *
           *              working on a common directory               *
           ************************************************************
-------------------------------------------------------------------------------
                                 ORCA SCF
-------------------------------------------------------------------------------

------------
SCF SETTINGS
------------
Hamiltonian:
 Density Functional     Method          .... DFT(GTOs)
 Exchange Functional    Exchange        .... PBE
   PBE kappa parameter   XKappa         ....  0.804000
   PBE mue parameter    XMuePBE         ....  0.219520
 Correlation Functional Correlation     .... PBE
   PBE beta parameter  CBetaPBE         ....  0.066725
 LDA part of GGA corr.  LDAOpt          .... PW91-LDA
 Gradients option       PostSCFGGA      .... off
 Hybrid DFT is turned on
   Fraction HF Exchange ScalHFX         ....  0.250000
   Scaling of DF-GGA-X  ScalDFX         ....  0.750000
   Scaling of DF-GGA-C  ScalDFC         ....  1.000000
   Scaling of DF-LDA-C  ScalLDAC        ....  1.000000
   Perturbative correction              ....  0.000000
   Density functional embedding theory  .... OFF
   NL short-range parameter             ....  6.900000


General Settings:
 Integral files         IntName         .... septamer1
 Hartree-Fock type      HFTyp           .... RHF
 Total Charge           Charge          ....    0
 Multiplicity           Mult            ....    1
 Number of Electrons    NEL             ....   70
 Basis Dimension        Dim             ....  168
 Nuclear Repulsion      ENuc            ....    352.7880393722 Eh

Convergence Acceleration:
 DIIS                   CNVDIIS         .... on
   Start iteration      DIISMaxIt       ....    12
   Startup error        DIISStart       ....  0.200000
   # of expansion vecs  DIISMaxEq       ....     5
   Bias factor          DIISBfac        ....   1.050
   Max. coefficient     DIISMaxC        ....  10.000
 Newton-Raphson         CNVNR           .... off
 SOSCF                  CNVSOSCF        .... on
   Start iteration      SOSCFMaxIt      ....   150
   Startup grad/error   SOSCFStart      ....  0.003300
 Level Shifting         CNVShift        .... on
   Level shift para.    LevelShift      ....    0.2500
   Turn off err/grad.   ShiftErr        ....    0.0010
 Zerner damping         CNVZerner       .... off
 Static damping         CNVDamp         .... on
   Fraction old density DampFac         ....    0.7000
   Max. Damping (<1)    DampMax         ....    0.9800
   Min. Damping (>=0)   DampMin         ....    0.0000
   Turn off err/grad.   DampErr         ....    0.1000
 Fernandez-Rico         CNVRico         .... off

SCF Procedure:
 Maximum # iterations   MaxIter         ....   125
 SCF integral mode      SCFMode         .... Direct
   Integral package                     .... LIBINT
 Reset frequency        DirectResetFreq ....    20
 Integral Threshold     Thresh          ....  2.500e-11 Eh
 Primitive CutOff       TCut            ....  2.500e-12 Eh

Convergence Tolerance:
 Convergence Check Mode ConvCheckMode   .... Total+1el-Energy
 Convergence forced     ConvForced      .... 0
 Energy Change          TolE            ....  1.000e-08 Eh
 1-El. energy change                    ....  1.000e-05 Eh
 Orbital Gradient       TolG            ....  1.000e-05
 Orbital Rotation angle TolX            ....  1.000e-05
 DIIS Error             TolErr          ....  5.000e-07


Diagonalization of the overlap matrix:
[1615912656.313457] [comp0800:178547:0]            sys.c:618  UCX  ERROR shmget(size=2097152 flags=0xb80) for ucp_am_bufs failed: Operation not permitted, please check shared memory limits by 'ipcs -l'
[1615912656.313931] [comp0800:178548:0]            sys.c:618  UCX  ERROR shmget(size=2097152 flags=0xb80) for ucp_am_bufs failed: Operation not permitted, please check shared memory limits by 'ipcs -l'
Smallest eigenvalue                        ... 2.152e-02
Time for diagonalization                   ...    0.006 sec
Threshold for overlap eigenvalues          ... 1.000e-08
Number of eigenvalues below threshold      ... 0
Time for construction of square roots      ...    0.002 sec
Total time needed                          ...    0.009 sec

-------------------
DFT GRID GENERATION
-------------------

General Integration Accuracy     IntAcc      ...  4.340
Radial Grid Type                 RadialGrid  ... Gauss-Chebyshev
Angular Grid (max. acc.)         AngularGrid ... Lebedev-110
Angular grid pruning method      GridPruning ... 3 (G Style)
Weight generation scheme         WeightScheme... Becke
Basis function cutoff            BFCut       ...    1.0000e-11
Integration weight cutoff        WCut        ...    1.0000e-14
Grids for H and He will be reduced by one unit

# of grid points (after initial pruning)     ...  23128 (   0.0 sec)
# of grid points (after weights+screening)   ...  21711 (   0.0 sec)
nearest neighbour list constructed           ...    0.0 sec
Grid point re-assignment to atoms done       ...    0.0 sec
Grid point division into batches done        ...    0.0 sec
Reduced shell lists constructed in    0.1 sec

Total number of grid points                  ...    21711
Total number of batches                      ...      351
Average number of points per batch           ...       61
Average number of grid points per atom       ...     1034
Average number of shells per batch           ...    48.65 (57.92%)
Average number of basis functions per batch  ...    87.21 (51.91%)
Average number of large shells per batch     ...    32.93 (67.69%)
Average number of large basis fcns per batch ...    56.89 (65.23%)
Maximum spatial batch extension              ...  15.08, 20.79, 19.34 au
Average spatial batch extension              ...   0.83,  0.85,  0.89 au

Time for grid setup =    0.118 sec

------------------------------
INITIAL GUESS: MODEL POTENTIAL
------------------------------
Loading Hartree-Fock densities                     ... done
Calculating cut-offs                               ... done
Setting up the integral package                    ... done
Initializing the effective Hamiltonian             ... done
Starting the Coulomb interaction                   ... done (   0.0 sec)
Reading the grid                                   ... done
Mapping shells                                     ... done
Starting the XC term evaluation                    ... done (   0.0 sec)
  promolecular density results
     # of electrons  =     69.988365675
     EX              =    -61.177603681
     EC              =     -2.253778587
     EX+EC           =    -63.431382268
Transforming the Hamiltonian                       ... done (   0.0 sec)
Diagonalizing the Hamiltonian                      ... done (   0.0 sec)
Back transforming the eigenvectors                 ... done (   0.0 sec)
Now organizing SCF variables                       ... done
                      ------------------
                      INITIAL GUESS DONE (   0.3 sec)
                      ------------------

--------------------
CPCM SOLVATION MODEL
--------------------
CPCM parameters:
  Epsilon                                         ...      78.3550
  Refrac                                          ...       1.3300
  Rsolv                                           ...       1.3000
  Surface type                                    ...    GEPOL SES
  Epsilon function type                           ...         CPCM
Solvent:                                     ... WATER
SMD-CDS solvent descriptors:
  Soln                                       ...    1.3328
  Soln25                                     ...    1.3323
  Sola                                       ...    0.0000
  Solb                                       ...    0.0000
  Solg                                       ...    0.0000
  Solc                                       ...    0.0000
  Solh                                       ...    0.0000
Radii:
 Radius for O  used is    2.8724 Bohr (=   1.5200 Ang.)
 Radius for H  used is    2.2677 Bohr (=   1.2000 Ang.)
Calculating surface                               ...        done! (  0.2s)
GEPOL surface points                              ...         1590
GEPOL Volume                                      ...    1021.9091
GEPOL Surface-area                                ...     686.3302
Calculating surface distance matrix               ...        done! (  0.0s)
Performing Cholesky decomposition & store         ...        done! (  0.1s)
Overall time for CPCM initialization              ...                 0.3s
--------------
SCF ITERATIONS
--------------
ITER       Energy         Delta-E        Max-DP      RMS-DP      [F,P]     Damp
               ***  Starting incremental Fock matrix formation  ***
  0   -533.5666290875   0.000000000000 0.08414295  0.00297463  0.2969193 0.7000
  1   -533.7996553804  -0.233026292886 0.04888753  0.00172149  0.1356438 0.7000
                               ***Turning on DIIS***
  2   -533.8855927523  -0.085937371903 0.06224527  0.00216011  0.0425888 0.0000
  3   -534.0243607576  -0.138768005273 0.02988806  0.00110801  0.0717792 0.0000
  4   -534.0529105719  -0.028549814333 0.00528915  0.00022203  0.0123906 0.0000
                      *** Initiating the SOSCF procedure ***
                           *** Shutting down DIIS ***
                      *** Re-Reading the Fockian *** 
                      *** Removing any level shift *** 
ITER      Energy       Delta-E        Grad      Rot      Max-DP    RMS-DP
  5   -534.05383150  -0.0009209242  0.000604  0.000604  0.001424  0.000063
               *** Restarting incremental Fock matrix formation ***
  6   -534.05387451  -0.0000430100  0.000364  0.000542  0.001283  0.000042
  7   -534.05387591  -0.0000013998  0.000391  0.000168  0.000763  0.000016
  8   -534.05388016  -0.0000042517  0.000018  0.000022  0.000059  0.000002
  9   -534.05388016  -0.0000000013  0.000032  0.000012  0.000041  0.000001
 10   -534.05388017  -0.0000000124  0.000003  0.000003  0.000005  0.000000
                  ***Gradient check signals convergence***
              ***Rediagonalizing the Fockian in SOSCF/NRSCF***

               *****************************************************
               *                     SUCCESS                       *
               *           SCF CONVERGED AFTER  11 CYCLES          *
               *****************************************************

Setting up the final grid:

General Integration Accuracy     IntAcc      ...  4.670
Radial Grid Type                 RadialGrid  ... Gauss-Chebyshev
Angular Grid (max. acc.)         AngularGrid ... Lebedev-302
Angular grid pruning method      GridPruning ... 3 (G Style)
Weight generation scheme         WeightScheme... Becke
Basis function cutoff            BFCut       ...    1.0000e-11
Integration weight cutoff        WCut        ...    1.0000e-14
Grids for H and He will be reduced by one unit

# of grid points (after initial pruning)     ...  91000 (   0.0 sec)
# of grid points (after weights+screening)   ...  84147 (   0.1 sec)
nearest neighbour list constructed           ...    0.0 sec
Grid point re-assignment to atoms done       ...    0.0 sec
Grid point division into batches done        ...    0.2 sec
Reduced shell lists constructed in    0.4 sec

Total number of grid points                  ...    84147
Total number of batches                      ...     1324
Average number of points per batch           ...       63
Average number of grid points per atom       ...     4007
Average number of shells per batch           ...    44.02 (52.41%)
Average number of basis functions per batch  ...    77.63 (46.21%)
Average number of large shells per batch     ...    29.51 (67.03%)
Average number of large basis fcns per batch ...    50.68 (65.28%)
Maximum spatial batch extension              ...  13.63, 14.16, 13.53 au
Average spatial batch extension              ...   0.57,  0.57,  0.58 au

Final grid set up in    0.5 sec
Final integration                            ... done (   0.2 sec)
Change in XC energy                          ...     0.001358707
Integrated number of electrons               ...    69.999865500
Previous integrated no of electrons          ...    70.006230020

SMD CDS free energy correction energy :                 6.93906     Kcal/mol
Total Energy after SMD CDS correction =              -534.041463373 Eh

----------------
TOTAL SCF ENERGY
----------------

Total Energy       :         -534.04146337 Eh          -14532.00701 eV

Components:
Nuclear Repulsion  :          352.78803937 Eh            9599.85060 eV
Electronic Energy  :         -886.82950274 Eh          -24131.85761 eV
One Electron Energy:        -1438.35119390 Eh          -39139.52580 eV
Two Electron Energy:          551.52169115 Eh           15007.66819 eV
CPCM Dielectric    :           -0.08113275 Eh              -2.20773 eV
SMD CDS (Gcds)     :            0.01105809 Eh               0.30091 eV

Virial components:
Potential Energy   :        -1064.48685777 Eh          -28966.16001 eV
Kinetic Energy     :          530.44539440 Eh           14434.15300 eV
Virial Ratio       :            2.00677934


DFT components:
N(Alpha)           :       34.999932750115 electrons
N(Beta)            :       34.999932750115 electrons
N(Total)           :       69.999865500231 electrons
E(X)               :      -46.922537410989 Eh       
E(C)               :       -2.339612501738 Eh       
E(XC)              :      -49.262149912727 Eh       
DFET-embed. en.    :        0.000000000000 Eh       
CPCM Solvation Model Properties:
Surface-charge          :           -0.02801001
Charge-correction       :           -0.00000394 Eh              -0.00011 eV
Free-energy (cav+disp)  :            0.00417679 Eh               0.11366 eV
Corrected G(solv)       :         -534.03729053 Eh          -14531.89346 eV

---------------
SCF CONVERGENCE
---------------

  Last Energy change         ...   -6.2687e-10  Tolerance :   1.0000e-08
  Last MAX-Density change    ...    1.3206e-06  Tolerance :   1.0000e-07
  Last RMS-Density change    ...    5.0197e-08  Tolerance :   5.0000e-09
  Last Orbital Gradient      ...    5.3427e-07  Tolerance :   1.0000e-05
  Last Orbital Rotation      ...    4.7917e-07  Tolerance :   1.0000e-05

             **** THE GBW FILE WAS UPDATED (septamer1.gbw) ****
             **** DENSITY FILE WAS UPDATED (septamer1.scfp) ****
             **** ENERGY FILE WAS UPDATED (septamer1.en.tmp) ****
             **** THE GBW FILE WAS UPDATED (septamer1.gbw) ****
             **** DENSITY FILE WAS UPDATED (septamer1.scfp) ****
----------------
ORBITAL ENERGIES
----------------

  NO   OCC          E(Eh)            E(eV) 
   0   2.0000     -19.227000      -523.1933 
   1   2.0000     -19.206867      -522.6454 
   2   2.0000     -19.204315      -522.5760 
   3   2.0000     -19.200822      -522.4809 
   4   2.0000     -19.195000      -522.3225 
   5   2.0000     -19.191932      -522.2390 
   6   2.0000     -19.163174      -521.4565 
   7   2.0000      -1.058123       -28.7930 
   8   2.0000      -1.030797       -28.0494 
   9   2.0000      -1.020220       -27.7616 
  10   2.0000      -1.009856       -27.4796 
  11   2.0000      -1.006950       -27.4005 
  12   2.0000      -1.002190       -27.2710 
  13   2.0000      -0.956917       -26.0390 
  14   2.0000      -0.572153       -15.5691 
  15   2.0000      -0.564982       -15.3739 
  16   2.0000      -0.539292       -14.6749 
  17   2.0000      -0.534284       -14.5386 
  18   2.0000      -0.531776       -14.4704 
  19   2.0000      -0.503807       -13.7093 
  20   2.0000      -0.489518       -13.3205 
  21   2.0000      -0.440085       -11.9753 
  22   2.0000      -0.421827       -11.4785 
  23   2.0000      -0.412492       -11.2245 
  24   2.0000      -0.396870       -10.7994 
  25   2.0000      -0.386922       -10.5287 
  26   2.0000      -0.378602       -10.3023 
  27   2.0000      -0.367089        -9.9890 
  28   2.0000      -0.342853        -9.3295 
  29   2.0000      -0.331392        -9.0176 
  30   2.0000      -0.328427        -8.9369 
  31   2.0000      -0.315516        -8.5856 
  32   2.0000      -0.315187        -8.5767 
  33   2.0000      -0.301916        -8.2156 
  34   2.0000      -0.285266        -7.7625 
  35   0.0000       0.030045         0.8176 
  36   0.0000       0.080156         2.1812 
  37   0.0000       0.085817         2.3352 
  38   0.0000       0.105718         2.8767 
  39   0.0000       0.117592         3.1998 
  40   0.0000       0.141706         3.8560 
  41   0.0000       0.152354         4.1458 
  42   0.0000       0.174500         4.7484 
  43   0.0000       0.192416         5.2359 
  44   0.0000       0.196654         5.3512 
  45   0.0000       0.203494         5.5374 
  46   0.0000       0.239216         6.5094 
  47   0.0000       0.260380         7.0853 
  48   0.0000       0.296778         8.0757 
  49   0.0000       0.515280        14.0215 
  50   0.0000       0.523522        14.2458 
  51   0.0000       0.551246        15.0002 
  52   0.0000       0.582237        15.8435 
  53   0.0000       0.594518        16.1777 
  54   0.0000       0.614324        16.7166 
  55   0.0000       0.628990        17.1157 
  56   0.0000       0.638889        17.3851 
  57   0.0000       0.648543        17.6478 
  58   0.0000       0.661404        17.9977 
  59   0.0000       0.673495        18.3267 
  60   0.0000       0.688314        18.7300 
  61   0.0000       0.701004        19.0753 
  62   0.0000       0.736318        20.0362 
  63   0.0000       0.851526        23.1712 
  64   0.0000       0.892190        24.2777 
  65   0.0000       0.896568        24.3969 
  66   0.0000       0.913822        24.8664 
  67   0.0000       0.918500        24.9937 
  68   0.0000       0.930876        25.3304 
  69   0.0000       0.950325        25.8597 
  70   0.0000       0.964401        26.2427 
  71   0.0000       0.973455        26.4890 
  72   0.0000       0.994153        27.0523 
  73   0.0000       0.999030        27.1850 
  74   0.0000       1.006474        27.3875 
  75   0.0000       1.023254        27.8442 
  76   0.0000       1.037562        28.2335 
  77   0.0000       1.049437        28.5566 
  78   0.0000       1.065442        28.9921 
  79   0.0000       1.072990        29.1975 
  80   0.0000       1.074340        29.2343 
  81   0.0000       1.102135        29.9906 
  82   0.0000       1.119150        30.4536 
  83   0.0000       1.134554        30.8728 
  84   0.0000       1.136024        30.9128 
  85   0.0000       1.159140        31.5418 
  86   0.0000       1.207878        32.8680 
  87   0.0000       1.243738        33.8438 
  88   0.0000       1.259591        34.2752 
  89   0.0000       1.281507        34.8716 
  90   0.0000       1.300424        35.3863 
  91   0.0000       1.339729        36.4559 
  92   0.0000       1.352787        36.8112 
  93   0.0000       1.359884        37.0043 
  94   0.0000       1.382660        37.6241 
  95   0.0000       1.387461        37.7547 
  96   0.0000       1.406426        38.2708 
  97   0.0000       1.423451        38.7341 
  98   0.0000       1.445813        39.3426 
  99   0.0000       1.447593        39.3910 
 100   0.0000       1.460713        39.7480 
 101   0.0000       1.467624        39.9361 
 102   0.0000       1.502768        40.8924 
 103   0.0000       1.510110        41.0922 
 104   0.0000       1.526336        41.5337 
 105   0.0000       1.568965        42.6937 
 106   0.0000       1.580095        42.9966 
 107   0.0000       1.592733        43.3405 
 108   0.0000       1.623463        44.1767 
 109   0.0000       1.643098        44.7110 
 110   0.0000       1.683762        45.8175 
 111   0.0000       1.705567        46.4108 
 112   0.0000       1.794718        48.8367 
 113   0.0000       1.796754        48.8922 
 114   0.0000       1.818842        49.4932 
 115   0.0000       1.850413        50.3523 
 116   0.0000       1.863007        50.6950 
 117   0.0000       1.923233        52.3338 
 118   0.0000       1.965305        53.4787 
 119   0.0000       2.200478        59.8781 
 120   0.0000       2.238511        60.9130 
 121   0.0000       2.246251        61.1236 
 122   0.0000       2.255757        61.3823 
 123   0.0000       2.266528        61.6754 
 124   0.0000       2.278348        61.9970 
 125   0.0000       2.319035        63.1041 
 126   0.0000       2.325042        63.2676 
 127   0.0000       2.328737        63.3681 
 128   0.0000       2.375261        64.6341 
 129   0.0000       2.395553        65.1863 
 130   0.0000       2.405658        65.4613 
 131   0.0000       2.435173        66.2644 
 132   0.0000       2.538165        69.0670 
 133   0.0000       2.919843        79.4530 
 134   0.0000       2.929856        79.7254 
 135   0.0000       2.947892        80.2162 
 136   0.0000       2.963469        80.6401 
 137   0.0000       2.973952        80.9253 
 138   0.0000       2.980190        81.0951 
 139   0.0000       2.982919        81.1693 
 140   0.0000       2.993990        81.4706 
 141   0.0000       3.015008        82.0426 
 142   0.0000       3.019464        82.1638 
 143   0.0000       3.036405        82.6248 
 144   0.0000       3.038520        82.6823 
 145   0.0000       3.062258        83.3283 
 146   0.0000       3.074281        83.6554 
 147   0.0000       3.162756        86.0630 
 148   0.0000       3.170504        86.2738 
 149   0.0000       3.188018        86.7504 
 150   0.0000       3.194808        86.9351 
 151   0.0000       3.210696        87.3675 
 152   0.0000       3.227513        87.8251 
 153   0.0000       3.246312        88.3366 
 154   0.0000       3.493114        95.0525 
 155   0.0000       3.504062        95.3504 
 156   0.0000       3.541753        96.3760 
 157   0.0000       3.549972        96.5996 
 158   0.0000       3.558536        96.8327 
 159   0.0000       3.572780        97.2203 
 160   0.0000       3.634246        98.8929 
 161   0.0000       3.821886       103.9988 
 162   0.0000       3.833927       104.3265 
 163   0.0000       3.849148       104.7406 
 164   0.0000       3.885292       105.7242 
 165   0.0000       3.890309       105.8607 
 166   0.0000       3.920046       106.6699 
 167   0.0000       3.946335       107.3852 

                    ********************************
                    * MULLIKEN POPULATION ANALYSIS *
                    ********************************

-----------------------
MULLIKEN ATOMIC CHARGES
-----------------------
   0 O :   -0.372294
   1 H :    0.175630
   2 H :    0.222135
   3 O :   -0.266051
   4 H :    0.167997
   5 H :    0.212838
   6 O :   -0.337772
   7 H :    0.198841
   8 H :    0.179486
   9 O :   -0.328949
  10 H :    0.197661
  11 H :    0.181452
  12 O :   -0.392093
  13 H :    0.194305
  14 H :    0.198811
  15 O :   -0.525153
  16 H :    0.175311
  17 H :    0.177326
  18 O :   -0.374343
  19 H :    0.142043
  20 H :    0.172822
Sum of atomic charges:    0.0000000

--------------------------------
MULLIKEN REDUCED ORBITAL CHARGES
--------------------------------
  0 O s       :     3.674781  s :     3.674781
      pz      :     1.841868  p :     4.689720
      px      :     1.622170
      py      :     1.225682
      dz2     :     0.000720  d :     0.007793
      dxz     :     0.001597
      dyz     :     0.001911
      dx2y2   :     0.000221
      dxy     :     0.003345
  1 H s       :     0.750762  s :     0.750762
      pz      :     0.018520  p :     0.073608
      px      :     0.023917
      py      :     0.031171
  2 H s       :     0.710187  s :     0.710187
      pz      :     0.017327  p :     0.067678
      px      :     0.017759
      py      :     0.032592
  3 O s       :     3.643798  s :     3.643798
      pz      :     1.484107  p :     4.612650
      px      :     1.761102
      py      :     1.367441
      dz2     :     0.003407  d :     0.009604
      dxz     :     0.001711
      dyz     :     0.000379
      dx2y2   :     0.003477
      dxy     :     0.000631
  4 H s       :     0.753474  s :     0.753474
      pz      :     0.018937  p :     0.078529
      px      :     0.021608
      py      :     0.037984
  5 H s       :     0.713987  s :     0.713987
      pz      :     0.034545  p :     0.073176
      px      :     0.022927
      py      :     0.015704
  6 O s       :     3.672047  s :     3.672047
      pz      :     1.321472  p :     4.656046
      px      :     1.688254
      py      :     1.646321
      dz2     :     0.000513  d :     0.009680
      dxz     :     0.001576
      dyz     :     0.004089
      dx2y2   :     0.001475
      dxy     :     0.002026
  7 H s       :     0.729062  s :     0.729062
      pz      :     0.025190  p :     0.072097
      px      :     0.027112
      py      :     0.019795
  8 H s       :     0.746374  s :     0.746374
      pz      :     0.032201  p :     0.074140
      px      :     0.017943
      py      :     0.023996
  9 O s       :     3.637488  s :     3.637488
      pz      :     1.325327  p :     4.683068
      px      :     1.766296
      py      :     1.591446
      dz2     :     0.001812  d :     0.008393
      dxz     :     0.000377
      dyz     :     0.002932
      dx2y2   :     0.001183
      dxy     :     0.002089
 10 H s       :     0.732704  s :     0.732704
      pz      :     0.036339  p :     0.069635
      px      :     0.018335
      py      :     0.014961
 11 H s       :     0.741513  s :     0.741513
      pz      :     0.024561  p :     0.077035
      px      :     0.024074
      py      :     0.028400
 12 O s       :     3.674025  s :     3.674025
      pz      :     1.845922  p :     4.709076
      px      :     1.570851
      py      :     1.292304
      dz2     :     0.001183  d :     0.008992
      dxz     :     0.001572
      dyz     :     0.000499
      dx2y2   :     0.000358
      dxy     :     0.005380
 13 H s       :     0.733110  s :     0.733110
      pz      :     0.019137  p :     0.072584
      px      :     0.024524
      py      :     0.028923
 14 H s       :     0.732933  s :     0.732933
      pz      :     0.020325  p :     0.068256
      px      :     0.019149
      py      :     0.028782
 15 O s       :     3.714872  s :     3.714872
      pz      :     1.430219  p :     4.802247
      px      :     1.516859
      py      :     1.855170
      dz2     :     0.002398  d :     0.008035
      dxz     :     0.000666
      dyz     :     0.001809
      dx2y2   :     0.002085
      dxy     :     0.001077
 16 H s       :     0.752960  s :     0.752960
      pz      :     0.017012  p :     0.071729
      px      :     0.039460
      py      :     0.015257
 17 H s       :     0.754215  s :     0.754215
      pz      :     0.034383  p :     0.068459
      px      :     0.014169
      py      :     0.019907
 18 O s       :     3.684998  s :     3.684998
      pz      :     1.326536  p :     4.679732
      px      :     1.445360
      py      :     1.907836
      dz2     :     0.002989  d :     0.009614
      dxz     :     0.002001
      dyz     :     0.000871
      dx2y2   :     0.002920
      dxy     :     0.000833
 19 H s       :     0.782251  s :     0.782251
      pz      :     0.017745  p :     0.075706
      px      :     0.039836
      py      :     0.018125
 20 H s       :     0.755776  s :     0.755776
      pz      :     0.034573  p :     0.071402
      px      :     0.016025
      py      :     0.020804


                     *******************************
                     * LOEWDIN POPULATION ANALYSIS *
                     *******************************

----------------------
LOEWDIN ATOMIC CHARGES
----------------------
   0 O :   -0.126482
   1 H :    0.043462
   2 H :    0.115289
   3 O :   -0.034301
   4 H :    0.058994
   5 H :    0.111333
   6 O :   -0.137898
   7 H :    0.102752
   8 H :    0.079721
   9 O :   -0.084527
  10 H :    0.088595
  11 H :    0.060630
  12 O :   -0.184061
  13 H :    0.084309
  14 H :    0.100186
  15 O :   -0.316382
  16 H :    0.048244
  17 H :    0.056736
  18 O :   -0.184873
  19 H :    0.046228
  20 H :    0.072046

-------------------------------
LOEWDIN REDUCED ORBITAL CHARGES
-------------------------------
  0 O s       :     3.412454  s :     3.412454
      pz      :     1.800124  p :     4.698614
      px      :     1.621663
      py      :     1.276827
      dz2     :     0.001114  d :     0.015414
      dxz     :     0.001898
      dyz     :     0.003788
      dx2y2   :     0.001226
      dxy     :     0.007388
  1 H s       :     0.746696  s :     0.746696
      pz      :     0.056449  p :     0.209842
      px      :     0.075525
      py      :     0.077868
  2 H s       :     0.712464  s :     0.712464
      pz      :     0.050522  p :     0.172247
      px      :     0.050245
      py      :     0.071480
  3 O s       :     3.363896  s :     3.363896
      pz      :     1.503151  p :     4.651016
      px      :     1.707099
      py      :     1.440767
      dz2     :     0.006994  d :     0.019389
      dxz     :     0.004012
      dyz     :     0.000176
      dx2y2   :     0.007672
      dxy     :     0.000536
  4 H s       :     0.735595  s :     0.735595
      pz      :     0.044630  p :     0.205412
      px      :     0.058688
      py      :     0.102094
  5 H s       :     0.703585  s :     0.703585
      pz      :     0.087972  p :     0.185083
      px      :     0.063271
      py      :     0.033840
  6 O s       :     3.408094  s :     3.408094
      pz      :     1.364352  p :     4.711173
      px      :     1.683257
      py      :     1.663564
      dz2     :     0.001600  d :     0.018632
      dxz     :     0.003881
      dyz     :     0.008690
      dx2y2   :     0.001598
      dxy     :     0.002862
  7 H s       :     0.715931  s :     0.715931
      pz      :     0.052336  p :     0.181317
      px      :     0.073127
      py      :     0.055854
  8 H s       :     0.729798  s :     0.729798
      pz      :     0.073337  p :     0.190481
      px      :     0.048313
      py      :     0.068831
  9 O s       :     3.358976  s :     3.358976
      pz      :     1.363138  p :     4.707886
      px      :     1.719383
      py      :     1.625365
      dz2     :     0.004753  d :     0.017666
      dxz     :     0.001624
      dyz     :     0.006025
      dx2y2   :     0.001280
      dxy     :     0.003984
 10 H s       :     0.733244  s :     0.733244
      pz      :     0.089347  p :     0.178160
      px      :     0.048150
      py      :     0.040663
 11 H s       :     0.728059  s :     0.728059
      pz      :     0.053405  p :     0.211310
      px      :     0.072996
      py      :     0.084909
 12 O s       :     3.412146  s :     3.412146
      pz      :     1.795002  p :     4.754444
      px      :     1.619941
      py      :     1.339502
      dz2     :     0.002207  d :     0.017471
      dxz     :     0.001819
      dyz     :     0.001815
      dx2y2   :     0.000244
      dxy     :     0.011385
 13 H s       :     0.724781  s :     0.724781
      pz      :     0.055608  p :     0.190910
      px      :     0.070242
      py      :     0.065060
 14 H s       :     0.727288  s :     0.727288
      pz      :     0.056049  p :     0.172527
      px      :     0.052757
      py      :     0.063721
 15 O s       :     3.483458  s :     3.483458
      pz      :     1.460252  p :     4.819082
      px      :     1.535675
      py      :     1.823155
      dz2     :     0.004673  d :     0.013841
      dxz     :     0.001120
      dyz     :     0.003376
      dx2y2   :     0.003525
      dxy     :     0.001147
 16 H s       :     0.741221  s :     0.741221
      pz      :     0.040512  p :     0.210535
      px      :     0.125645
      py      :     0.044377
 17 H s       :     0.755258  s :     0.755258
      pz      :     0.095123  p :     0.188005
      px      :     0.033591
      py      :     0.059291
 18 O s       :     3.433452  s :     3.433452
      pz      :     1.381220  p :     4.733952
      px      :     1.502032
      py      :     1.850700
      dz2     :     0.006581  d :     0.017469
      dxz     :     0.003512
      dyz     :     0.001728
      dx2y2   :     0.005301
      dxy     :     0.000347
 19 H s       :     0.753481  s :     0.753481
      pz      :     0.036364  p :     0.200291
      px      :     0.113469
      py      :     0.050458
 20 H s       :     0.743648  s :     0.743648
      pz      :     0.085974  p :     0.184306
      px      :     0.041102
      py      :     0.057230


                      *****************************
                      * MAYER POPULATION ANALYSIS *
                      *****************************

  NA   - Mulliken gross atomic population
  ZA   - Total nuclear charge
  QA   - Mulliken gross atomic charge
  VA   - Mayer's total valence
  BVA  - Mayer's bonded valence
  FA   - Mayer's free valence

  ATOM       NA         ZA         QA         VA         BVA        FA
  0 O      8.3723     8.0000    -0.3723     2.0973     2.0973    -0.0000
  1 H      0.8244     1.0000     0.1756     1.0886     1.0886     0.0000
  2 H      0.7779     1.0000     0.2221     0.9776     0.9776    -0.0000
  3 O      8.2661     8.0000    -0.2661     2.2026     2.2026     0.0000
  4 H      0.8320     1.0000     0.1680     1.0439     1.0439     0.0000
  5 H      0.7872     1.0000     0.2128     0.9944     0.9944     0.0000
  6 O      8.3378     8.0000    -0.3378     2.0721     2.0721    -0.0000
  7 H      0.8012     1.0000     0.1988     0.9961     0.9961    -0.0000
  8 H      0.8205     1.0000     0.1795     1.0148     1.0148    -0.0000
  9 O      8.3289     8.0000    -0.3289     2.1151     2.1151     0.0000
 10 H      0.8023     1.0000     0.1977     1.0391     1.0391     0.0000
 11 H      0.8185     1.0000     0.1815     1.0154     1.0154     0.0000
 12 O      8.3921     8.0000    -0.3921     1.9845     1.9845     0.0000
 13 H      0.8057     1.0000     0.1943     0.9995     0.9995     0.0000
 14 H      0.8012     1.0000     0.1988     0.9996     0.9996     0.0000
 15 O      8.5252     8.0000    -0.5252     1.8730     1.8730    -0.0000
 16 H      0.8247     1.0000     0.1753     1.0767     1.0767     0.0000
 17 H      0.8227     1.0000     0.1773     1.0588     1.0588     0.0000
 18 O      8.3743     8.0000    -0.3743     2.0348     2.0348     0.0000
 19 H      0.8580     1.0000     0.1420     1.1000     1.1000    -0.0000
 20 H      0.8272     1.0000     0.1728     1.0468     1.0468     0.0000

  Mayer bond orders larger than 0.100000
B(  0-O ,  1-H ) :   0.9139 B(  0-O ,  2-H ) :   0.9634 B(  0-O , 16-H ) :   0.1900 
B(  1-H ,  9-O ) :   0.1590 B(  3-O ,  4-H ) :   0.9780 B(  3-O ,  5-H ) :   0.9696 
B(  3-O , 17-H ) :   0.1124 B(  3-O , 19-H ) :   0.1190 B(  6-O ,  7-H ) :   0.9787 
B(  6-O ,  8-H ) :   0.9894 B(  9-O , 10-H ) :   0.9439 B(  9-O , 11-H ) :   0.9949 
B( 12-O , 13-H ) :   0.9919 B( 12-O , 14-H ) :   0.9802 B( 15-O , 16-H ) :   0.8890 
B( 15-O , 17-H ) :   0.9421 B( 18-O , 19-H ) :   0.9490 B( 18-O , 20-H ) :   0.9735 


-------
TIMINGS
-------

Total SCF time: 0 days 0 hours 0 min 9 sec 

Total time                  ....       9.786 sec
Sum of individual times     ....       9.277 sec  ( 94.8%)

Fock matrix formation       ....       8.474 sec  ( 86.6%)
  XC integration            ....       0.742 sec  (  8.8% of F)
    Basis function eval.    ....       0.318 sec  ( 42.9% of XC)
    Density eval.           ....       0.123 sec  ( 16.5% of XC)
    XC-Functional eval.     ....       0.080 sec  ( 10.8% of XC)
    XC-Potential eval.      ....       0.136 sec  ( 18.3% of XC)
Diagonalization             ....       0.022 sec  (  0.2%)
Density matrix formation    ....       0.004 sec  (  0.0%)
Population analysis         ....       0.008 sec  (  0.1%)
Initial guess               ....       0.158 sec  (  1.6%)
Orbital Transformation      ....       0.000 sec  (  0.0%)
Orbital Orthonormalization  ....       0.000 sec  (  0.0%)
DIIS solution               ....       0.007 sec  (  0.1%)
SOSCF solution              ....       0.013 sec  (  0.1%)
Grid generation             ....       0.591 sec  (  6.0%)


-------------------------------------------------------------------------------
                          DFT DISPERSION CORRECTION                            
                                                                               
                              DFTD3 V3.1  Rev 1                                
                          USING Becke-Johnson damping                          
-------------------------------------------------------------------------------
The PBE0 functional is recognized
Active option DFTDOPT                   ...         4   

molecular C6(AA) [au] = 2181.611852 


            DFT-D V3
 parameters
 s6 scaling factor         :     1.0000 
 a1 scaling factor         :     0.4145 
 s8 scaling factor         :     1.2177 
 a2 scaling factor         :     4.8593 
 ad hoc parameters k1-k3   :    16.0000     1.3333    -4.0000 

 Edisp/kcal,au: -5.080759970184  -0.008096705529 
 E6   /kcal   :  -3.564257714 
 E8   /kcal   :  -1.516502256 
 % E8         :  29.847941349 

-------------------------   ----------------
Dispersion correction           -0.008096706
-------------------------   ----------------


-------------------------   --------------------
FINAL SINGLE POINT ENERGY      -534.049560078187
-------------------------   --------------------

[1615912667.063025] [comp0800:178592:0]            sys.c:618  UCX  ERROR shmget(size=2097152 flags=0xfb0) for mm_recv_desc failed: Operation not permitted, please check shared memory limits by 'ipcs -l'
[1615912667.068490] [comp0800:178590:0]            sys.c:618  UCX  ERROR shmget(size=2097152 flags=0xfb0) for mm_recv_desc failed: Operation not permitted, please check shared memory limits by 'ipcs -l'
[1615912667.095134] [comp0800:178591:0]            sys.c:618  UCX  ERROR shmget(size=2097152 flags=0xfb0) for mm_recv_desc failed: Operation not permitted, please check shared memory limits by 'ipcs -l'
[1615912667.106104] [comp0800:178593:0]            sys.c:618  UCX  ERROR shmget(size=2097152 flags=0xfb0) for mm_recv_desc failed: Operation not permitted, please check shared memory limits by 'ipcs -l'
[1615912667.115339] [comp0800:178593:0]            sys.c:618  UCX  ERROR shmget(size=2097152 flags=0xb80) for ucp_am_bufs failed: Operation not permitted, please check shared memory limits by 'ipcs -l'


           ************************************************************
           *        Program running with 4 parallel MPI-processes     *
           *              working on a common directory               *
           ************************************************************
[1615912667.120493] [comp0800:178592:0]            sys.c:618  UCX  ERROR shmget(size=2097152 flags=0xb80) for ucp_am_bufs failed: Operation not permitted, please check shared memory limits by 'ipcs -l'
[1615912667.120625] [comp0800:178591:0]            sys.c:618  UCX  ERROR shmget(size=2097152 flags=0xb80) for ucp_am_bufs failed: Operation not permitted, please check shared memory limits by 'ipcs -l'
------------------------------------------------------------------------------
                         ORCA SCF GRADIENT CALCULATION
------------------------------------------------------------------------------

Gradient of the Kohn-Sham DFT energy:
Kohn-Sham wavefunction type      ... RKS
Hartree-Fock exchange scaling    ...    0.250
Number of operators              ...    1
Number of atoms                  ...   21
Basis set dimensions             ...  168
Integral neglect threshold       ... 2.5e-11
Integral primitive cutoff        ... 2.5e-12

Nuclear repulsion gradient       ... done
One Electron Gradient            ... done
Pre-screening matrix             ... done
Starting the two electron gradient:
Two electron gradient done
Exchange-correlation gradient    ... done
Dispersion correction            ... done

------------------
CARTESIAN GRADIENT
------------------

   1   O   :   -0.003032819   -0.017137183    0.001265149
   2   H   :    0.010615132   -0.000705595    0.001661814
   3   H   :   -0.001790456    0.018243295   -0.003324434
   4   O   :   -0.001722361   -0.048599263   -0.013637069
   5   H   :    0.002706471    0.060001989   -0.006371889
   6   H   :   -0.008472845   -0.005978898    0.019340240
   7   O   :   -0.008696307   -0.015994683    0.017475689
   8   H   :    0.005120550    0.001113383    0.006003353
   9   H   :    0.001561079    0.014006718   -0.024385318
  10   O   :   -0.045143717   -0.068796371    0.047257439
  11   H   :    0.004960678    0.003290012   -0.009967697
  12   H   :    0.033616049    0.064890895   -0.032058485
  13   O   :    0.020871561   -0.030897408    0.010767496
  14   H   :   -0.022132744    0.014381258   -0.002402747
  15   H   :    0.002660761    0.014720065   -0.006751965
  16   O   :    0.034859638    0.021145691    0.023226172
  17   H   :   -0.031264738   -0.007454527    0.001434432
  18   H   :   -0.007736366   -0.012419386   -0.024951682
  19   O   :   -0.009014207    0.000118221   -0.006980783
  20   H   :    0.013859681   -0.010040813   -0.002486683
  21   H   :    0.008174959    0.006112599    0.004886967

Difference to translation invariance:
           :    0.0000000000   -0.0000000000   -0.0000000000

Norm of the cartesian gradient     ...    0.1776457603
RMS gradient                       ...    0.0223812621
MAX gradient                       ...    0.0687963713

-------
TIMINGS
-------

Total SCF gradient time            ...        2.845 sec

One electron gradient       ....       0.026 sec  (  0.9%)
Prescreening matrices       ....       0.013 sec  (  0.5%)
Two electron gradient       ....       1.075 sec  ( 37.8%)
XC gradient                 ....       0.961 sec  ( 33.8%)
CPCM gradient               ....       0.529 sec  ( 18.6%)
   A-Matrix (El+Nuc)        ....       0.088 sec  (  3.1%)
   Potential                ....       0.441 sec  ( 15.5%)
[1615912669.967093] [comp0800:178590:0]            sys.c:618  UCX  ERROR shmget(size=2097152 flags=0xb80) for ucp_am_bufs failed: Operation not permitted, please check shared memory limits by 'ipcs -l'
------------------------------------------------------------------------------
                         ORCA GEOMETRY RELAXATION STEP
------------------------------------------------------------------------------

Reading the OPT-File                    .... done
Getting information on internals        .... done
Copying old internal coords+grads       .... done
Making the new internal coordinates     .... (new redundants).... done
Validating the new internal coordinates .... (new redundants).... done
Calculating the B-matrix                .... done
Calculating the G,G- and P matrices     .... done
Transforming gradient to internals      .... done
Projecting the internal gradient        .... done
Number of atoms                         ....  21
Number of internal coordinates          .... 128
Current Energy                          ....  -534.049560078 Eh
Current gradient norm                   ....     0.177645760 Eh/bohr
Maximum allowed component of the step   ....  0.300
Current trust radius                    ....  0.300
Evaluating the initial hessian          ....  (Almloef) done
Projecting the Hessian                  .... done
Forming the augmented Hessian           .... done
Diagonalizing the augmented Hessian     .... done
Last element of RFO vector              ....  0.921094141
Lowest eigenvalues of augmented Hessian:
 -0.030961948  0.000050692  0.000110484  0.000330211  0.000829147
Length of the computed step             ....  0.422692879
Warning: the length of the step is outside the trust region - taking restricted step instead
The input lambda is                     ....    -0.030962
   iter:   1  x=   -0.047930  g=    5.225695 f(x)=     0.088669
   iter:   2  x=   -0.061395  g=    2.257152 f(x)=     0.030394
   iter:   3  x=   -0.066050  g=    1.395795 f(x)=     0.006497
   iter:   4  x=   -0.066418  g=    1.211094 f(x)=     0.000445
   iter:   5  x=   -0.066420  g=    1.198111 f(x)=     0.000002
   iter:   6  x=   -0.066420  g=    1.198041 f(x)=     0.000000
   iter:   7  x=   -0.066420  g=    1.198041 f(x)=     0.000000
The output lambda is                    ....    -0.066420 (7 iterations)
The final length of the internal step   ....  0.300000000
Converting the step to cartesian space:
 Initial RMS(Int)=    0.0265165043
Transforming coordinates:
 Iter   0:  RMS(Cart)=    0.1243757219 RMS(Int)=    0.0269865381
 Iter   1:  RMS(Cart)=    0.0031036106 RMS(Int)=    0.0041771008
 Iter   2:  RMS(Cart)=    0.0002620305 RMS(Int)=    0.0002787346
 Iter   3:  RMS(Cart)=    0.0000134975 RMS(Int)=    0.0000263593
 Iter   4:  RMS(Cart)=    0.0000007279 RMS(Int)=    0.0000023433
 Iter   5:  RMS(Cart)=    0.0000000657 RMS(Int)=    0.0000003058
done
Storing new coordinates                 .... done

                                .--------------------.
          ----------------------|Geometry convergence|-------------------------
          Item                value                   Tolerance       Converged
          ---------------------------------------------------------------------
          RMS gradient        0.0100182984            0.0005000000      NO
          MAX gradient        0.0768746803            0.0020000000      NO
          RMS step            0.0265165043            0.0070000000      NO
          MAX step            0.1108272640            0.0100000000      NO
          ........................................................
          Max(Bonds)      0.0586      Max(Angles)    1.77
          Max(Dihed)        2.54      Max(Improp)    0.00
          ---------------------------------------------------------------------

The optimization has not yet converged - more geometry cycles are needed


    ---------------------------------------------------------------------------
                         Redundant Internal Coordinates
                            (Angstroem and degrees)

        Definition                    Value    dE/dq     Step     New-Value
    ----------------------------------------------------------------------------
     1. B(H   1,O   0)                0.9745 -0.002121  0.0029    0.9774   
     2. B(H   2,O   0)                0.9830  0.014729 -0.0173    0.9657   
     3. B(H   4,O   3)                0.9187 -0.039010  0.0406    0.9594   
     4. B(H   5,O   3)                0.9477 -0.021404  0.0186    0.9663   
     5. B(O   6,H   4)                2.4720  0.003925 -0.0024    2.4696   
     6. B(H   7,O   6)                0.9588 -0.008234  0.0071    0.9659   
     7. B(H   8,H   4)                2.6335  0.004053 -0.0110    2.6225   
     8. B(H   8,O   6)                0.9413 -0.016284  0.0206    0.9618   
     9. B(O   9,H   1)                1.7923  0.001236 -0.0093    1.7830   
    10. B(H  10,O   9)                0.9776  0.008232 -0.0101    0.9675   
    11. B(H  10,H   1)                2.2314  0.002497 -0.0087    2.2227   
    12. B(H  11,O   9)                0.9015 -0.076875  0.0586    0.9602   
    13. B(O  12,H   1)                3.9925  0.002102 -0.0077    3.9848   
    14. B(O  12,H   8)                3.6597  0.015038 -0.0493    3.6104   
    15. B(O  12,O   9)                3.6155 -0.001151 -0.0043    3.6111   
    16. B(O  12,H  11)                3.3639  0.010861 -0.0261    3.3378   
    17. B(O  12,H  10)                3.5246 -0.001453  0.0063    3.5309   
    18. B(H  13,O  12)                0.9408 -0.022006  0.0205    0.9614   
    19. B(H  13,H   8)                3.9370 -0.008747  0.0265    3.9635   
    20. B(H  14,O   0)                4.0271 -0.003441  0.0047    4.0318   
    21. B(H  14,H  11)                3.3683 -0.004960 -0.0044    3.3639   
    22. B(H  14,H  10)                3.1875 -0.002417  0.0218    3.2093   
    23. B(H  14,O  12)                0.9777  0.014174 -0.0152    0.9625   
    24. B(H  14,O   9)                3.3687  0.001500  0.0041    3.3728   
    25. B(H  14,H   8)                3.1890  0.004239 -0.0084    3.1806   
    26. B(H  14,O   6)                3.9654 -0.009736  0.0088    3.9743   
    27. B(H  14,H   4)                3.6256  0.000299  0.0044    3.6300   
    28. B(H  14,H   1)                3.4214 -0.001416  0.0015    3.4228   
    29. B(H  16,O   0)                1.6713 -0.002395  0.0016    1.6729   
    30. B(H  16,O  15)                1.0271  0.029616 -0.0346    0.9925   
    31. B(H  16,H   2)                2.0161  0.002270 -0.0003    2.0158   
    32. B(H  17,O  15)                1.0064  0.029735 -0.0311    0.9753   
    33. B(H  17,O   3)                1.8512  0.001723 -0.0091    1.8421   
    34. B(O  18,O   6)                2.8609  0.002709  0.0053    2.8662   
    35. B(O  18,H  14)                3.9930  0.003869 -0.0169    3.9761   
    36. B(H  19,O  18)                0.9805 -0.000926 -0.0018    0.9788   
    37. B(H  19,H   8)                2.9280 -0.006323  0.0073    2.9352   
    38. B(H  19,O   6)                2.7310 -0.005840  0.0058    2.7368   
    39. B(H  19,H  14)                3.6291  0.001924 -0.0103    3.6187   
    40. B(H  19,H   4)                1.7533 -0.011035  0.0501    1.8034   
    41. B(H  19,O   3)                1.7995 -0.009891  0.0438    1.8432   
    42. B(H  20,H   8)                2.8105 -0.003864  0.0100    2.8205   
    43. B(H  20,H   7)                2.5964  0.001460 -0.0061    2.5904   
    44. B(H  20,O  18)                0.9646 -0.002525  0.0039    0.9685   
    45. B(H  20,O   6)                2.3017  0.003846  0.0004    2.3021   
    46. A(H   1,O   0,H  16)          117.63  0.000494   -1.20    116.42   
    47. A(H   1,O   0,H   2)          107.52  0.003908   -0.35    107.16   
    48. A(H   2,O   0,H  16)           95.33 -0.002577    0.57     95.90   
    49. A(O   0,H   1,H  10)          160.44 -0.002442    0.68    161.12   
    50. A(O   0,H   1,O   9)          164.06  0.000056   -0.51    163.55   
    51. A(O   9,H   1,H  10)           25.23  0.002112   -0.22     25.00   
    52. A(O   0,H   2,H  16)           55.63 -0.001628    0.02     55.64   
    53. A(H   4,O   3,H  17)          119.88  0.001345    0.17    120.04   
    54. A(H   5,O   3,H  17)          130.51  0.000883   -0.25    130.26   
    55. A(H   4,O   3,H  19)           72.25  0.003399    0.23     72.48   
    56. A(H   4,O   3,H   5)          102.75 -0.003164    0.39    103.14   
    57. A(H  17,O   3,H  19)           92.51 -0.000318   -0.40     92.11   
    58. A(H   5,O   3,H  19)          125.55 -0.000580    0.03    125.59   
    59. A(O   3,H   4,H  19)           77.82  0.006996   -0.79     77.03   
    60. A(H   7,O   6,O  18)          105.94 -0.000319   -0.14    105.80   
    61. A(H   7,O   6,H   8)          101.77 -0.000730    0.27    102.04   
    62. A(H   8,O   6,O  18)           96.36  0.002713   -0.17     96.19   
    63. A(H   1,O   9,H  10)          103.38 -0.002603    0.45    103.83   
    64. A(H  11,O   9,O  12)           66.80  0.000016   -0.82     65.98   
[...]
     25      -0.085538   0.003765  -0.032107  -0.007572  -0.007655  -0.000133
     26       0.339239  -0.016686   0.146472   0.031106   0.040372  -0.000122
     27       0.008403   0.000736  -0.037814  -0.001480  -0.000147  -0.000167
     28       0.015309   0.001493   0.045915   0.006467  -0.001745   0.000519
     29      -0.050897  -0.004835  -0.008423  -0.009667   0.003711   0.000401
     30      -0.118180  -0.012660  -0.015420  -0.026902   0.012252   0.000112
     31      -0.265079  -0.024823   0.023137  -0.044212   0.018195   0.001731
     32       0.814997   0.078702  -0.019632   0.146452  -0.060047  -0.006685
     33      -0.012129  -0.000153   0.605615   0.047500  -0.007863   0.004986
     34       0.033793   0.002609  -0.745528  -0.056943   0.009658  -0.006767
     35      -0.027329  -0.001806   0.141667   0.008304  -0.000961   0.001545
     36       0.001918  -0.003568   0.003282   0.000744   0.000004   0.000051
     37       0.002033  -0.003627   0.004702   0.000863   0.000041  -0.000181
     38       0.000711  -0.001623  -0.000265   0.000143  -0.000116   0.000185
     39       0.003796   0.000178   0.013873   0.001185   0.000089  -0.000903
     40      -0.004483  -0.010016  -0.022090  -0.000903  -0.000483   0.003881
     41       0.007043   0.005474   0.019393   0.001107   0.000414  -0.002891
     42      -0.031525   0.057731  -0.056285  -0.012201  -0.000360  -0.000063
     43      -0.031594   0.071596  -0.063102  -0.014478  -0.000042  -0.000791
     44      -0.010199   0.019451  -0.018758  -0.004244  -0.000089   0.000017
     45      -0.003514   0.005519   0.000811  -0.001611  -0.000102  -0.000978
     46       0.003091   0.013676   0.000276  -0.002657  -0.000147   0.000718
     47       0.002015  -0.057387  -0.002097   0.013208   0.000870   0.000642
     48       0.057181   0.010274  -0.007643   0.005181   0.000597   0.016117
     49      -0.050214  -0.003773   0.006468  -0.005918  -0.000789  -0.012486
     50      -0.029153  -0.028053   0.003491   0.001643  -0.000349  -0.005889
     51      -0.001429  -0.094962  -0.002590   0.018808   0.000631   0.000413
     52       0.001248  -0.221161  -0.007788   0.049330   0.003112   0.001042
     53      -0.001175   0.921162   0.030143  -0.212103  -0.014132  -0.003557
     54       0.010312  -0.012970   0.004239  -0.053340   0.005492  -0.000035
     55       0.001022  -0.006481   0.000913  -0.018921  -0.058476   0.000026
     56       0.002202  -0.002141   0.001105  -0.006712  -0.018868   0.000054
     57      -0.159266   0.208827  -0.067972   0.860209   0.063284   0.000428
     58      -0.068395   0.095057  -0.028572   0.364747  -0.006981   0.000251
     59      -0.024607   0.031235  -0.011570   0.128130   0.000269  -0.000210
     60      -0.004107  -0.010127   0.000268  -0.021314  -0.150045   0.000117
     61       0.046068   0.007866   0.011801  -0.067351   0.931825  -0.000894
     62       0.009760   0.001887   0.002504  -0.024705   0.303725  -0.000395
                  60         61         62    
      0      -0.000010   0.000042   0.000009
      1      -0.000124  -0.000227  -0.000185
      2       0.000063   0.000130   0.000085
      3       0.000166  -0.000349  -0.000005
      4       0.000155  -0.000118   0.000174
      5       0.000207  -0.000009   0.000185
      6      -0.000084  -0.000151  -0.000121
      7       0.001921   0.003556   0.002761
      8      -0.001195  -0.002246  -0.001755
      9      -0.038640   0.002514  -0.004047
     10      -0.025692   0.002150  -0.003723
     11       0.041531  -0.002370   0.003694
     12      -0.000626  -0.002547   0.005633
     13       0.052975  -0.013216   0.026319
     14       0.032861  -0.004371   0.007629
     15       0.612553  -0.037370   0.058525
     16       0.349118  -0.021073   0.032798
     17      -0.692930   0.042451  -0.066451
     18       0.003804   0.012871  -0.028705
     19      -0.004516  -0.017869   0.038937
     20      -0.004042  -0.012059   0.030539
     21      -0.057855  -0.208855   0.463991
     22       0.081121   0.292580  -0.650384
     23       0.051743   0.188494  -0.417453
     24       0.000701   0.003996  -0.008814
     25      -0.005310  -0.008990   0.032512
     26       0.012622   0.000456  -0.062445
     27       0.000008   0.001049   0.000708
     28       0.000014  -0.001252  -0.000880
     29      -0.000021   0.000314   0.000276
     30      -0.000191   0.000526   0.000421
     31      -0.000096  -0.000106   0.000473
     32       0.000351  -0.001173  -0.002120
     33       0.000055  -0.017613  -0.012368
     34      -0.000140   0.020033   0.013732
     35       0.000073  -0.004158  -0.002551
     36      -0.000156  -0.008391  -0.003930
     37       0.000861   0.045683   0.020320
     38      -0.000612  -0.032787  -0.015159
     39       0.003096   0.165199   0.074246
     40      -0.013062  -0.708325  -0.319556
     41       0.010058   0.544094   0.244642
     42      -0.000513  -0.028380  -0.009069
     43      -0.000242  -0.012391  -0.001307
     44      -0.000188  -0.020568  -0.007893
     45       0.000196  -0.000040  -0.000016
     46       0.000317  -0.000529  -0.000255
     47      -0.001692   0.000317  -0.000065
     48      -0.000809  -0.003117  -0.001727
     49       0.000981   0.002861   0.001715
     50      -0.000094   0.002056   0.001102
     51      -0.002758   0.001006   0.000345
     52      -0.005610   0.001613   0.000272
     53       0.027194  -0.007578  -0.000386
     54       0.001779  -0.000183   0.000389
     55       0.000936   0.000691  -0.001539
     56       0.000362   0.000219  -0.000469
     57      -0.030317   0.000894  -0.001658
     58      -0.010204   0.000622  -0.001080
     59      -0.004036   0.000153  -0.000505
     60       0.000647   0.001988  -0.004481
     61      -0.003961  -0.011732   0.025499
     62      -0.001555  -0.003736   0.007983


-----------
IR SPECTRUM
-----------

 Mode    freq (cm**-1)   T**2         TX         TY         TZ
-------------------------------------------------------------------
   6:        39.47   11.536827  (  0.828570   1.385559   2.988398)
   7:        53.94    2.251132  (  1.416333   0.247025  -0.429080)
   8:        64.95    1.652197  ( -0.294520   1.247792  -0.092032)
   9:        80.64    1.981991  ( -0.403004  -0.133468  -1.342298)
  10:        86.04    5.603029  ( -1.096734   2.042132   0.479480)
  11:       102.28    3.060831  ( -1.614863  -0.648228  -0.181246)
  12:       190.54   49.832656  ( -6.325909   1.561670  -2.716011)
  13:       200.21   21.065308  ( -3.462091   0.096860   3.011620)
  14:       219.64  149.011998  (-10.394812  -5.316777  -3.562551)
  15:       221.27   14.961757  (  1.863129  -3.335451  -0.604379)
  16:       234.31   26.499258  ( -4.781630   0.138180  -1.901624)
  17:       241.18    6.727200  (  2.555787  -0.433363  -0.085722)
  18:       252.85   50.649265  (  3.672216  -6.092988   0.198984)
  19:       259.47  113.509501  (  2.451074  -4.275794  -9.445598)
  20:       265.79   73.978997  ( -3.141035   7.955040  -0.911172)
  21:       283.21   41.801485  ( -0.110100   6.290453  -1.489820)
  22:       295.61  129.584698  (  7.211841   8.718342   1.250820)
  23:       302.01   51.989456  (  6.484763   2.273979  -2.183191)
  24:       332.07  102.677064  (  5.469582  -5.229283  -6.739090)
  25:       383.68   93.176402  ( -5.216434   1.334758   8.011469)
  26:       429.91   43.918074  (  1.573487   5.688482   3.013866)
  27:       448.79    1.630514  (  0.506799   0.873615  -0.781323)
  28:       480.73  269.162015  (-12.106395 -10.748197   2.659602)
  29:       497.98  114.758786  ( -0.342426  -9.748574  -4.427960)
  30:       579.72  178.132847  ( -3.206591  -9.778055  -8.499427)
  31:       612.11   53.838250  (  2.926532  -1.524729  -6.553538)
  32:       625.50   43.910691  (  6.234093   1.024901  -1.999087)
  33:       686.65   59.577862  ( -4.348851  -4.333039  -4.678688)
  34:       749.18  476.294349  (  6.211983 -12.824936  16.529569)
  35:       802.68  304.149315  (  2.614973   4.290300  16.700436)
  36:       810.86   40.080571  ( -2.523883  -4.729777  -3.367462)
  37:       828.30  542.905922  (-21.740513  -7.510080   3.722190)
  38:       853.50  305.886792  (-10.270760 -10.042805  -9.976990)
  39:       905.27  154.549200  ( -9.047478  -7.787933  -3.469933)
  40:       998.12  230.243870  (-13.037448   5.997762   4.929063)
  41:      1104.58   19.796125  (  3.969781   0.368500  -1.975138)
  42:      1594.80   60.966330  ( -2.335048  -4.302360   6.083057)
  43:      1618.67  141.624693  (  4.389946  -5.529514  -9.580060)
  44:      1626.32  242.508869  (-12.377310   9.253811  -1.917822)
  45:      1660.22   95.886683  (  4.665072  -2.771951   8.151078)
  46:      1673.59   44.878695  ( -1.502652   4.287208  -4.923472)
  47:      1692.15  140.656568  ( -8.414667   6.551523  -5.189171)
  48:      1693.52  163.815024  ( 10.531724  -4.624182  -5.613801)
  49:      3071.15  1100.415276  ( 15.623874  27.954925   8.650549)
  50:      3228.14  1455.704518  ( 25.180062  21.093322  19.409810)
  51:      3342.16  983.377628  ( -6.745520 -30.452594   3.242701)
  52:      3372.46  1234.099351  ( 24.433567 -15.722666 -19.745833)
  53:      3414.06  664.255139  (  3.130531  16.864718  19.236326)
  54:      3425.54  1445.915880  (-12.976249 -12.064343  33.644977)
  55:      3525.65  918.832297  (  4.310429  -4.806570  29.616708)
  56:      3551.29  794.707363  ( 16.196550 -20.872881   9.833716)
  57:      3600.35  665.204525  ( 24.868584   6.658070   1.558258)
  58:      3729.75  360.659104  ( -3.345179  18.258353   4.012660)
  59:      3868.18  108.140919  (  1.137318   9.484686  -4.109521)
  60:      3871.22  129.926807  (  6.908472   7.042856  -5.709465)
  61:      3878.13  133.836695  ( -2.354305  -6.767518   9.082656)
  62:      3880.83  157.969954  (  6.027813  -9.563447  -5.493259)

The first frequency considered to be a vibration is 6
The total number of vibrations considered is 57


--------------------------
THERMOCHEMISTRY AT 298.15K
--------------------------

Temperature         ... 298.15 K
Pressure            ... 1.00 atm
Total Mass          ... 126.10 AMU

Throughout the following assumptions are being made:
  (1) The electronic state is orbitally nondegenerate
  (2) There are no thermally accessible electronically excited states
  (3) Hindered rotations indicated by low frequency modes are not
      treated as such but are treated as vibrations and this may
      cause some error
  (4) All equations used are the standard statistical mechanics
      equations for an ideal gas
  (5) All vibrations are strictly harmonic

freq.      39.47  E(vib)   ...       0.54 
freq.      53.94  E(vib)   ...       0.52 
freq.      64.95  E(vib)   ...       0.50 
freq.      80.64  E(vib)   ...       0.48 
freq.      86.04  E(vib)   ...       0.48 
freq.     102.28  E(vib)   ...       0.46 
freq.     190.54  E(vib)   ...       0.36 
freq.     200.21  E(vib)   ...       0.35 
freq.     219.64  E(vib)   ...       0.33 
freq.     221.27  E(vib)   ...       0.33 
freq.     234.31  E(vib)   ...       0.32 
freq.     241.18  E(vib)   ...       0.31 
freq.     252.85  E(vib)   ...       0.30 
freq.     259.47  E(vib)   ...       0.30 
freq.     265.79  E(vib)   ...       0.29 
freq.     283.21  E(vib)   ...       0.28 
freq.     295.61  E(vib)   ...       0.27 
freq.     302.01  E(vib)   ...       0.26 
freq.     332.07  E(vib)   ...       0.24 
freq.     383.68  E(vib)   ...       0.20 
freq.     429.91  E(vib)   ...       0.18 
freq.     448.79  E(vib)   ...       0.17 
freq.     480.73  E(vib)   ...       0.15 
freq.     497.98  E(vib)   ...       0.14 
freq.     579.72  E(vib)   ...       0.11 
freq.     612.11  E(vib)   ...       0.10 
freq.     625.50  E(vib)   ...       0.09 
freq.     686.65  E(vib)   ...       0.07 
freq.     749.18  E(vib)   ...       0.06 
freq.     802.68  E(vib)   ...       0.05 
freq.     810.86  E(vib)   ...       0.05 
freq.     828.30  E(vib)   ...       0.04 
freq.     853.50  E(vib)   ...       0.04 
freq.     905.27  E(vib)   ...       0.03 
freq.     998.12  E(vib)   ...       0.02 
freq.    1104.58  E(vib)   ...       0.02 
freq.    1594.80  E(vib)   ...       0.00 
freq.    1618.67  E(vib)   ...       0.00 
freq.    1626.32  E(vib)   ...       0.00 
freq.    1660.22  E(vib)   ...       0.00 
freq.    1673.59  E(vib)   ...       0.00 
freq.    1692.15  E(vib)   ...       0.00 
freq.    1693.52  E(vib)   ...       0.00 
freq.    3071.15  E(vib)   ...       0.00 
freq.    3228.14  E(vib)   ...       0.00 
freq.    3342.16  E(vib)   ...       0.00 
freq.    3372.46  E(vib)   ...       0.00 
freq.    3414.06  E(vib)   ...       0.00 
freq.    3425.54  E(vib)   ...       0.00 
freq.    3525.65  E(vib)   ...       0.00 
freq.    3551.29  E(vib)   ...       0.00 
freq.    3600.35  E(vib)   ...       0.00 
freq.    3729.75  E(vib)   ...       0.00 
freq.    3868.18  E(vib)   ...       0.00 
freq.    3871.22  E(vib)   ...       0.00 
freq.    3878.13  E(vib)   ...       0.00 
freq.    3880.83  E(vib)   ...       0.00 

------------
INNER ENERGY
------------

The inner energy is: U= E(el) + E(ZPE) + E(vib) + E(rot) + E(trans)
    E(el)   - is the total energy from the electronic structure calculation
              = E(kin-el) + E(nuc-el) + E(el-el) + E(nuc-nuc)
    E(ZPE)  - the the zero temperature vibrational energy from the frequency calculation
    E(vib)  - the the finite temperature correction to E(ZPE) due to population
              of excited vibrational states
    E(rot)  - is the rotational thermal energy
    E(trans)- is the translational thermal energy

Summary of contributions to the inner energy U:
Electronic energy                ...   -534.12940951 Eh
Zero point energy                ...      0.17505720 Eh     109.85 kcal/mol
Thermal vibrational correction   ...      0.01348319 Eh       8.46 kcal/mol
Thermal rotational correction    ...      0.00141627 Eh       0.89 kcal/mol
Thermal translational correction ...      0.00141627 Eh       0.89 kcal/mol
-----------------------------------------------------------------------
Total thermal energy                   -533.93803657 Eh


Summary of corrections to the electronic energy:
(perhaps to be used in another calculation)
Total thermal correction                  0.01631573 Eh      10.24 kcal/mol
Non-thermal (ZPE) correction              0.17505720 Eh     109.85 kcal/mol
-----------------------------------------------------------------------
Total correction                          0.19137294 Eh     120.09 kcal/mol


--------
ENTHALPY
--------

The enthalpy is H = U + kB*T
                kB is Boltzmann's constant
Total free energy                 ...   -533.93803657 Eh 
Thermal Enthalpy correction       ...      0.00094421 Eh       0.59 kcal/mol
-----------------------------------------------------------------------
Total Enthalpy                    ...   -533.93709236 Eh


Note: Only C1 symmetry has been detected, increase convergence thresholds 
      if your molecule has a higher symmetry. Symmetry factor of 1.0 is   
      used for the rotational entropy correction. 
 

Note: Rotational entropy computed according to Herzberg 
Infrared and Raman Spectra, Chapter V,1, Van Nostrand Reinhold, 1945 
Point Group:  C1, Symmetry Number:   1  
Rotational constants in cm-1:     0.048473     0.035941     0.033541 

Vibrational entropy computed according to the QRRHO of S. Grimme
Chem.Eur.J. 2012 18 9955


-------
ENTROPY
-------

The entropy contributions are T*S = T*(S(el)+S(vib)+S(rot)+S(trans))
     S(el)   - electronic entropy
     S(vib)  - vibrational entropy
     S(rot)  - rotational entropy
     S(trans)- translational entropy
The entropies will be listed as mutliplied by the temperature to get
units of energy

Electronic entropy                ...      0.00000000 Eh      0.00 kcal/mol
Vibrational entropy               ...      0.02382812 Eh     14.95 kcal/mol
Rotational entropy                ...      0.01411256 Eh      8.86 kcal/mol
Translational entropy             ...      0.01919974 Eh     12.05 kcal/mol
-----------------------------------------------------------------------
Final entropy term                ...      0.05714042 Eh     35.86 kcal/mol

In case the symmetry of your molecule has not been determined correctly
or in case you have a reason to use a different symmetry number we print 
out the resulting rotational entropy values for sn=1,12 :
 --------------------------------------------------------
|  sn= 1 | S(rot)=       0.01411256 Eh      8.86 kcal/mol|
|  sn= 2 | S(rot)=       0.01345811 Eh      8.45 kcal/mol|
|  sn= 3 | S(rot)=       0.01307528 Eh      8.20 kcal/mol|
|  sn= 4 | S(rot)=       0.01280365 Eh      8.03 kcal/mol|
|  sn= 5 | S(rot)=       0.01259296 Eh      7.90 kcal/mol|
|  sn= 6 | S(rot)=       0.01242082 Eh      7.79 kcal/mol|
|  sn= 7 | S(rot)=       0.01227527 Eh      7.70 kcal/mol|
|  sn= 8 | S(rot)=       0.01214920 Eh      7.62 kcal/mol|
|  sn= 9 | S(rot)=       0.01203799 Eh      7.55 kcal/mol|
|  sn=10 | S(rot)=       0.01193851 Eh      7.49 kcal/mol|
|  sn=11 | S(rot)=       0.01184852 Eh      7.44 kcal/mol|
|  sn=12 | S(rot)=       0.01176636 Eh      7.38 kcal/mol|
 --------------------------------------------------------


-------------------
GIBBS FREE ENERGY
-------------------

The Gibbs free energy is G = H - T*S

Total enthalpy                    ...   -533.93709236 Eh 
Total entropy correction          ...     -0.05714042 Eh    -35.86 kcal/mol
-----------------------------------------------------------------------
Final Gibbs free energy         ...   -533.99423279 Eh

For completeness - the Gibbs free energy minus the electronic energy
G-E(el)                           ...      0.13517672 Eh     84.82 kcal/mol

[1615914107.929990] [comp0800:187480:0]            sys.c:618  UCX  ERROR shmget(size=2097152 flags=0xfb0) for mm_recv_desc failed: Operation not permitted, please check shared memory limits by 'ipcs -l'
[1615914107.937685] [comp0800:187482:0]            sys.c:618  UCX  ERROR shmget(size=2097152 flags=0xfb0) for mm_recv_desc failed: Operation not permitted, please check shared memory limits by 'ipcs -l'
[1615914107.948250] [comp0800:187483:0]            sys.c:618  UCX  ERROR shmget(size=2097152 flags=0xfb0) for mm_recv_desc failed: Operation not permitted, please check shared memory limits by 'ipcs -l'
[1615914107.948299] [comp0800:187481:0]            sys.c:618  UCX  ERROR shmget(size=2097152 flags=0xfb0) for mm_recv_desc failed: Operation not permitted, please check shared memory limits by 'ipcs -l'
[1615914107.956080] [comp0800:187480:0]            sys.c:618  UCX  ERROR shmget(size=2097152 flags=0xb80) for ucp_am_bufs failed: Operation not permitted, please check shared memory limits by 'ipcs -l'
[1615914107.956626] [comp0800:187483:0]            sys.c:618  UCX  ERROR shmget(size=2097152 flags=0xb80) for ucp_am_bufs failed: Operation not permitted, please check shared memory limits by 'ipcs -l'
[1615914107.956661] [comp0800:187481:0]            sys.c:618  UCX  ERROR shmget(size=2097152 flags=0xb80) for ucp_am_bufs failed: Operation not permitted, please check shared memory limits by 'ipcs -l'
[1615914107.957433] [comp0800:187482:0]            sys.c:618  UCX  ERROR shmget(size=2097152 flags=0xb80) for ucp_am_bufs failed: Operation not permitted, please check shared memory limits by 'ipcs -l'

Timings for individual modules:

Sum of individual times         ...     1411.063 sec (=  23.518 min)
GTO integral calculation        ...      106.100 sec (=   1.768 min)   7.5 %
SCF iterations                  ...      677.022 sec (=  11.284 min)  48.0 %
SCF Gradient evaluation         ...      345.933 sec (=   5.766 min)  24.5 %
Geometry relaxation             ...       31.334 sec (=   0.522 min)   2.2 %
Analytical frequency calculation...      250.675 sec (=   4.178 min)  17.8 %
                             ****ORCA TERMINATED NORMALLY****
TOTAL RUN TIME: 0 days 0 hours 24 minutes 13 seconds 920 msec
