
                                 *****************
                                 * O   R   C   A *
                                 *****************

           --- An Ab Initio, DFT and Semiempirical electronic structure package ---

                  #######################################################
                  #                        -***-                        #
                  #          Department of theory and spectroscopy      #
                  #               Directorship: Frank Neese             #
                  #        Max Planck Institute fuer Kohlenforschung    #
                  #                Kaiser Wilhelm Platz 1               #
                  #                 D-45470 Muelheim/Ruhr               #
                  #                      Germany                        #
                  #                                                     #
                  #                  All rights reserved                #
                  #                        -***-                        #
                  #######################################################


                         Program Version 4.2.1 -  RELEASE  -


 With contributions from (in alphabetic order):
   Daniel Aravena         : Magnetic Suceptibility
   Michael Atanasov       : Ab Initio Ligand Field Theory (pilot matlab implementation)
   Alexander A. Auer      : GIAO ZORA, VPT2
   Ute Becker             : Parallelization
   Giovanni Bistoni       : ED, misc. LED, open-shell LED, HFLD
   Martin Brehm           : Molecular dynamics
   Dmytro Bykov           : SCF Hessian
   Vijay G. Chilkuri      : MRCI spin determinant printing, contributions to CSF-ICE
   Dipayan Datta          : RHF DLPNO-CCSD density
   Achintya Kumar Dutta   : EOM-CC, STEOM-CC
   Dmitry Ganyushin       : Spin-Orbit,Spin-Spin,Magnetic field MRCI
   Miquel Garcia          : C-PCM Hessian, Gaussian charge scheme
   Yang Guo               : DLPNO-NEVPT2, CIM, IAO-localization
   Andreas Hansen         : Spin unrestricted coupled pair/coupled cluster methods
   Benjamin Helmich-Paris : CASSCF linear response (MC-RPA)
   Lee Huntington         : MR-EOM, pCC
   Robert Izsak           : Overlap fitted RIJCOSX, COSX-SCS-MP3, EOM
   Christian Kollmar      : KDIIS, OOCD, Brueckner-CCSD(T), CCSD density
   Simone Kossmann        : Meta GGA functionals, TD-DFT gradient, OOMP2, MP2 Hessian
   Martin Krupicka        : AUTO-CI
   Lucas Lang             : DCDCAS
   Dagmar Lenk            : GEPOL surface, SMD
   Dimitrios Liakos       : Extrapolation schemes; Compound Job, initial MDCI parallelization
   Dimitrios Manganas     : Further ROCIS development; embedding schemes
   Dimitrios Pantazis     : SARC Basis sets
   Taras Petrenko         : DFT Hessian,TD-DFT gradient, ASA, ECA, R-Raman, ABS, FL, XAS/XES, NRVS
   Peter Pinski           : DLPNO-MP2, DLPNO-MP2 Gradient
   Christoph Reimann      : Effective Core Potentials
   Marius Retegan         : Local ZFS, SOC
   Christoph Riplinger    : Optimizer, TS searches, QM/MM, DLPNO-CCSD(T), (RO)-DLPNO pert. Triples
   Tobias Risthaus        : Range-separated hybrids, TD-DFT gradient, RPA, STAB
   Michael Roemelt        : Original ROCIS implementation
   Masaaki Saitow         : Open-shell DLPNO-CCSD energy and density
   Barbara Sandhoefer     : DKH picture change effects
   Avijit Sen             : IP-ROCIS
   Kantharuban Sivalingam : CASSCF convergence, NEVPT2, FIC-MRCI
   Bernardo de Souza      : ESD, SOC TD-DFT
   Georgi Stoychev        : AutoAux, RI-MP2 NMR
   Willem Van den Heuvel  : Paramagnetic NMR
   Boris Wezisla          : Elementary symmetry handling
   Frank Wennmohs         : Technical directorship


 We gratefully acknowledge several colleagues who have allowed us to
 interface, adapt or use parts of their codes:
   Stefan Grimme, W. Hujo, H. Kruse,             : VdW corrections, initial TS optimization,
                  C. Bannwarth                     DFT functionals, gCP, sTDA/sTD-DF
   Ed Valeev, F. Pavosevic, A. Kumar             : LibInt (2-el integral package), F12 methods
   Garnet Chan, S. Sharma, J. Yang, R. Olivares  : DMRG
   Ulf Ekstrom                                   : XCFun DFT Library
   Mihaly Kallay                                 : mrcc  (arbitrary order and MRCC methods)
   Andreas Klamt, Michael Diedenhofen            : otool_cosmo (COSMO solvation model)
   Jiri Pittner, Ondrej Demel                    : Mk-CCSD
   Frank Weinhold                                : gennbo (NPA and NBO analysis)
   Christopher J. Cramer and Donald G. Truhlar   : smd solvation model
   Lars Goerigk                                  : TD-DFT with DH, B97 family of functionals
   V. Asgeirsson, H. Jonsson                     : NEB implementation
   FAccTs GmbH                                   : IRC, NEB, NEB-TS, Multilevel, MM, QM/MM, CI optimization
   S Lehtola, MJT Oliveira, MAL Marques          : LibXC Library


 Your calculation uses the libint2 library for the computation of 2-el integrals
 For citations please refer to: http://libint.valeyev.net

 Your ORCA version has been built with support for libXC version: 4.2.3
 For citations please refer to: https://tddft.org/programs/libxc/

 This ORCA versions uses:
   CBLAS   interface :  Fast vector & matrix operations
   LAPACKE interface :  Fast linear algebra routines
   SCALAPACK package :  Parallel linear algebra routines




***************************************
The coordinates will be read from file: septamer3.xyz
***************************************


Your calculation utilizes the atom-pairwise dispersion correction
with the Becke-Johnson damping scheme (D3BJ)
Cite in your paper:
S.Grimme, S.Ehrlich, L.Goerigk, J Comput Chem, (2011), 32, 1456–1465 
S.Grimme, J.Antony, S.Ehrlich and H.Krieg, J.Chem.Phys., 132, (2010), 154104 
   

Your calculation utilizes the SMD solvation module
Please cite in your paper:
A.V. Marenich, C.J. Cramer, D.G. Truhlar J. Phys. Chem. B, 113, (2009), 6378 

----- Orbital basis set information -----
Your calculation utilizes the basis: def2-SVP
   F. Weigend and R. Ahlrichs, Phys. Chem. Chem. Phys. 7, 3297 (2005).

================================================================================
                                        WARNINGS
                       Please study these warnings very carefully!
================================================================================


WARNING: Geometry Optimization
  ===> : Switching off AutoStart
         For restart on a previous wavefunction, please use MOREAD

INFO   : the flag for use of LIBINT has been found!

================================================================================
                                       INPUT FILE
================================================================================
NAME = septamer3.inp
|  1> ! PBE0 D3BJ def2-SVP LooseOpt Freq CPCM(water) PAL4
|  2> %geom MaxIter 500 end
|  3> %maxcore 4000
|  4> %cpcm  
|  5>     smd true
|  6>     SMDsolvent "water"
|  7> end
|  8> *xyzfile 0 1 septamer3.xyz
|  9> 
| 10>                          ****END OF INPUT****
================================================================================

                       *****************************
                       * Geometry Optimization Run *
                       *****************************

Geometry optimization settings:
Update method            Update   .... BFGS
Choice of coordinates    CoordSys .... Z-matrix Internals
Initial Hessian          InHess   .... Almoef's Model

Convergence Tolerances:
Energy Change            TolE     ....  3.0000e-05 Eh
Max. Gradient            TolMAXG  ....  2.0000e-03 Eh/bohr
RMS Gradient             TolRMSG  ....  5.0000e-04 Eh/bohr
Max. Displacement        TolMAXD  ....  1.0000e-02 bohr
RMS Displacement         TolRMSD  ....  7.0000e-03 bohr
Strict Convergence                ....  False
------------------------------------------------------------------------------
                        ORCA OPTIMIZATION COORDINATE SETUP
------------------------------------------------------------------------------

The optimization will be done in new redundant internal coordinates
Making redundant internal coordinates   ...  (new redundants) done
Evaluating the initial hessian          ...  (Almloef) done
Evaluating the coordinates              ...  done
Calculating the B-matrix                .... done
Calculating the G-matrix                .... done
Diagonalizing the G-matrix              .... done
The first mode is                       ....  260
The number of degrees of freedom        ....   57

    -----------------------------------------------------------------
                    Redundant Internal Coordinates


    -----------------------------------------------------------------
         Definition                    Initial Value    Approx d2E/dq
    -----------------------------------------------------------------
      1. B(H   1,O   0)                  1.0031         0.443737   
      2. B(H   2,O   0)                  0.9659         0.508849   
      3. B(H   4,O   3)                  0.9968         0.454175   
      4. B(H   5,O   3)                  0.9664         0.507872   
      5. B(H   7,O   6)                  0.9665         0.507672   
      6. B(H   8,O   6)                  0.9843         0.475549   
      7. B(O   9,H   4)                  1.6577         0.040069   
      8. B(H  10,O   9)                  0.9893         0.466908   
      9. B(H  10,H   4)                  2.1068         0.001645   
     10. B(H  11,H   4)                  2.1351         0.001483   
     11. B(H  11,O   9)                  0.9799         0.483230   
     12. B(O  12,H   8)                  1.7444         0.029139   
     13. B(O  12,H  11)                  1.8130         0.022653   
     14. B(H  13,O  12)                  0.9657         0.509244   
     15. B(H  14,H   8)                  2.1820         0.001248   
     16. B(H  14,H  11)                  2.1674         0.001317   
     17. B(H  14,O   0)                  1.6774         0.037278   
     18. B(H  14,O  12)                  0.9926         0.461224   
     19. B(O  15,H   1)                  1.6144         0.046988   
     20. B(H  16,O  15)                  0.9975         0.453120   
     21. B(H  16,H   5)                  2.1121         0.001613   
     22. B(H  16,O   3)                  1.6500         0.041218   
     23. B(H  16,H   1)                  2.0636         0.001928   
     24. B(H  17,O  15)                  0.9664         0.507812   
     25. B(H  17,H   1)                  2.0697         0.001885   
     26. B(O  18,H  10)                  1.7402         0.029596   
     27. B(H  19,H  10)                  2.0748         0.001850   
     28. B(H  19,O   0)                  1.7839         0.025203   
     29. B(H  19,O  18)                  0.9821         0.479494   
     30. B(H  20,H  10)                  2.0248         0.002223   
     31. B(H  20,O  18)                  0.9848         0.474617   
     32. B(H  20,H   8)                  2.0894         0.001754   
     33. B(H  20,H   7)                  2.1803         0.001256   
     34. B(H  20,O   6)                  1.7798         0.025588   
     35. A(H   1,O   0,H  14)          111.7050         0.212714   
     36. A(H   2,O   0,H  19)          121.5790         0.205788   
     37. A(H  14,O   0,H  19)           91.0122         0.153636   
     38. A(H   1,O   0,H  19)          109.7557         0.202225   
     39. A(H   1,O   0,H   2)          105.5349         0.312533   
     40. A(H   2,O   0,H  14)          116.8541         0.216608   
     41. A(O   0,H   1,H  16)          146.6245         0.140196   
     42. A(O   0,H   1,O  15)          173.7062         0.219369   
     43. A(O  15,H   1,H  16)           28.2398         0.119798   
     44. A(O   0,H   1,H  17)          150.2375         0.139937   
     45. A(H  16,H   1,H  17)           43.9009         0.101033   
     46. A(O  15,H   1,H  17)           26.9669         0.119642   
     47. A(H   5,O   3,H  16)          104.6121         0.219486   
     48. A(H   4,O   3,H  16)          105.9539         0.216227   
     49. A(H   4,O   3,H   5)          103.5934         0.313615   
     50. A(O   3,H   4,H  11)          153.1713         0.137497   
     51. A(H  10,H   4,H  11)           42.1432         0.099995   
     52. A(O   3,H   4,H  10)          149.3754         0.138652   
     53. A(O   9,H   4,H  11)           26.2935         0.116994   
     54. A(O   9,H   4,H  10)           27.2823         0.117660   
     55. A(O   3,H   5,H  16)           49.1083         0.139699   
     56. A(H   8,O   6,H  20)           93.7474         0.204408   
     57. A(H   7,O   6,H  20)          100.9261         0.206128   
     58. A(H   7,O   6,H   8)          103.1412         0.315945   
     59. A(O   6,H   7,H  20)           53.2729         0.136899   
     60. A(H  14,H   8,H  20)           86.2440         0.099729   
     61. A(O  12,H   8,H  20)          105.5991         0.116056   
     62. A(O   6,H   8,H  20)           58.2125         0.139903   
     63. A(O  12,H   8,H  14)           26.3991         0.114051   
     64. A(O   6,H   8,H  14)          142.3205         0.136131   
     65. A(O   6,H   8,O  12)          163.1852         0.207853   
     66. A(H   4,O   9,H  11)          105.1725         0.217203   
     67. A(H   4,O   9,H  10)          102.5361         0.216209   
     68. A(H  10,O   9,H  11)          101.5338         0.312495   
     69. A(O  18,H  10,H  20)           29.0886         0.117648   
     70. A(H   4,H  10,H  20)          152.5042         0.101051   
     71. A(O  18,H  10,H  19)           28.1212         0.116482   
     72. A(H   4,H  10,O   9)           50.1816         0.138963   
     73. A(H   4,H  10,H  19)          109.8787         0.100560   
     74. A(O   9,H  10,H  19)          141.0776         0.140309   
     75. A(H   4,H  10,O  18)          131.8515         0.115761   
     76. A(O   9,H  10,O  18)          165.9639         0.207779   
     77. A(O   9,H  10,H  20)          141.2566         0.142487   
     78. A(H  19,H  10,H  20)           43.7304         0.101375   
     79. A(H   4,H  11,O   9)           48.5340         0.138183   
     80. A(O  12,H  11,H  14)           27.0497         0.112951   
     81. A(O   9,H  11,H  14)          133.7889         0.136878   
     82. A(H   4,H  11,O  12)          130.7969         0.113604   
     83. A(O   9,H  11,O  12)          156.9171         0.201677   
     84. A(H   4,H  11,H  14)          107.1834         0.099455   
     85. A(H   8,O  12,H  11)           89.7259         0.148673   
     86. A(H  13,O  12,H  14)          105.9864         0.314537   
     87. A(H  11,O  12,H  14)           96.7908         0.200494   
     88. A(H  11,O  12,H  13)          129.2005         0.203022   
     89. A(H   8,O  12,H  14)          102.2151         0.207033   
     90. A(H   8,O  12,H  13)          127.0410         0.209709   
     91. A(O   0,H  14,H  11)          110.8784         0.115810   
     92. A(H  11,H  14,O  12)           56.1595         0.136376   
     93. A(O   0,H  14,O  12)          163.6253         0.213801   
     94. A(H   8,H  14,H  11)           70.4880         0.099055   
     95. A(O   0,H  14,H   8)          117.3264         0.115487   
     96. A(H   8,H  14,O  12)           51.3858         0.135806   
     97. A(H  16,O  15,H  17)          103.7547         0.313491   
     98. A(H   1,O  15,H  17)          103.7891         0.223410   
     99. A(H   1,O  15,H  16)          101.7819         0.219988   
    100. A(O   3,H  16,H   5)           26.2796         0.117717   
    101. A(H   1,H  16,O  15)           49.9783         0.140439   
    102. A(H   1,H  16,H   5)          130.1890         0.100617   
    103. A(H   5,H  16,O  15)          153.8241         0.138407   
    104. A(H   1,H  16,O   3)          125.9619         0.118898   
    105. A(H   1,H  17,O  15)           49.2440         0.141516   
    106. A(H  19,O  18,H  20)          101.9038         0.312931   
    107. A(H  10,O  18,H  20)           91.7027         0.208220   
    108. A(H  10,O  18,H  19)           95.2417         0.208496   
    109. A(O   0,H  19,H  10)          107.6463         0.115500   
    110. A(H  10,H  19,O  18)           56.6371         0.140619   
    111. A(O   0,H  19,O  18)          161.9315         0.204228   
    112. A(H  10,H  20,O  18)           59.2087         0.142686   
    113. A(H   7,H  20,H   8)           41.8781         0.099744   
    114. A(O   6,H  20,H   8)           28.0401         0.115272   
    115. A(H   8,H  20,H  10)           88.7886         0.101226   
    116. A(H   8,H  20,O  18)          136.2933         0.139881   
    117. A(O   6,H  20,H   7)           25.8010         0.113358   
    118. A(H   7,H  20,H  10)           91.7747         0.100336   
    119. A(H   7,H  20,O  18)          149.3405         0.136174   
    120. A(O   6,H  20,H  10)          107.6509         0.116720   
    121. A(O   6,H  20,O  18)          163.8940         0.204357   
    122. D(O  15,H   1,O   0,H   2)    145.6730         0.300719   
    123. D(O  15,H   1,O   0,H  19)     13.0355         0.300719   
    124. D(H  16,H   1,O   0,H  14)    -53.9637         0.300719   
    125. D(H  17,H   1,O   0,H   2)     87.1437         0.300719   
    126. D(H  17,H   1,O   0,H  14)   -144.8843         0.300719   
    127. D(H  16,H   1,O   0,H  19)     45.4267         0.300719   
    128. D(H  16,H   1,O   0,H   2)    178.0642         0.300719   
    129. D(O  15,H   1,O   0,H  14)    -86.3549         0.300719   
    130. D(H  17,H   1,O   0,H  19)    -45.4939         0.300719   
    131. D(H  10,H   4,O   3,H  16)    -49.6628         0.295761   
    132. D(H  11,H   4,O   3,H   5)    156.7576         0.295761   
    133. D(H  10,H   4,O   3,H   5)     60.1572         0.295761   
    134. D(H  11,H   4,O   3,H  16)     46.9376         0.295761   
    135. D(H  16,H   5,O   3,H   4)   -110.8104         0.325410   
    136. D(H  20,H   7,O   6,H   8)     96.5127         0.325079   
    137. D(H  20,H   8,O   6,H   7)   -102.1428         0.332605   
    138. D(H  14,H   8,O   6,H  20)    -21.7968         0.332605   
    139. D(H  14,H   8,O   6,H   7)   -123.9396         0.332605   
    140. D(O  12,H   8,O   6,H  20)     16.8412         0.332605   
    141. D(O  12,H   8,O   6,H   7)    -85.3016         0.332605   
    142. D(H  11,O   9,O   3,H  16)     53.9155         0.001502   
    143. D(H  10,O   9,O   3,H  16)    -51.4400         0.001502   
    144. D(H  11,O   9,H   4,H  10)    105.8146         0.002595   
    145. D(H  10,O   9,O   3,H   5)     57.5587         0.001502   
    146. D(H  10,O   9,H   4,H  11)   -105.8146         0.002595   
    147. D(H  11,O   9,O   3,H   5)    162.9142         0.001502   
    148. D(O  18,H  10,H   4,O   9)   -161.6069         0.001534   
    149. D(O  18,H  10,H   4,O   3)     15.9011         0.001534   
    150. D(O  18,H  10,H   4,H  11)   -122.1730         0.001534   
    151. D(O   9,H  10,H   4,O   3)    177.5080         0.001534   
    152. D(H  19,H  10,O   9,H   4)     70.8668         0.342346   
    153. D(O   9,H  10,H   4,H  11)     39.4340         0.001534   
    154. D(H  20,H  10,O   9,H   4)    143.7391         0.342346   
    155. D(O  18,H  10,O   9,H   4)    104.2852         0.342346   
    156. D(H  20,H  10,O   9,H  11)     35.1355         0.342346   
    157. D(O  18,H  10,O   9,H  11)     -4.3184         0.342346   
    158. D(H  20,H  10,H   4,O   9)   -126.7018         0.001534   
    159. D(H  20,H  10,H   4,H  11)    -87.2679         0.001534   
    160. D(H  19,H  10,H   4,H  11)   -101.4296         0.001534   
    161. D(H  19,H  10,H   4,O   9)   -140.8635         0.001534   
    162. D(H  19,H  10,H   4,O   3)     36.6445         0.001534   
    163. D(H  19,H  10,O   9,H  11)    -37.7368         0.342346   
    164. D(H   4,H  10,O   9,H  11)   -108.6036         0.342346   
    165. D(H  20,H  10,H   4,O   3)     50.8062         0.001534   
    166. D(H  14,H  11,O   9,H   4)    -72.4857         0.346550   
    167. D(H  14,H  11,O   9,H  10)     34.0652         0.346550   
    168. D(O  12,H  11,O   9,H  10)      7.8943         0.346550   
    169. D(H   4,H  11,O   9,H  10)    106.5509         0.346550   
    170. D(H  14,H  11,H   4,H  10)     92.8038         0.001526   
    171. D(O  12,H  11,H   4,O   9)    149.2032         0.001526   
    172. D(O   9,H  11,H   4,H  10)    -41.0926         0.001526   
    173. D(O  12,H  11,H   4,O   3)    -22.9369         0.001526   
    174. D(O   9,H  11,H   4,O   3)   -172.1401         0.001526   
    175. D(O  12,H  11,O   9,H   4)    -98.6566         0.346550   
    176. D(H  14,H  11,H   4,O   3)    -38.2437         0.001526   
    177. D(H  14,H  11,H   4,O   9)    133.8965         0.001526   
    178. D(O  12,H  11,H   4,H  10)    108.1105         0.001526   
    179. D(H  13,O  12,H   8,H  14)   -121.0914         0.002104   
    180. D(H  14,O  12,H   8,O   6)    -59.1368         0.002104   
    181. D(H  13,O  12,H   8,H  20)   -165.4141         0.002104   
    182. D(H  11,O  12,H   8,O   6)     37.7524         0.002104   
    183. D(H  13,O  12,H   8,O   6)    179.7719         0.002104   
    184. D(H  14,O  12,H   8,H  20)    -44.3228         0.002104   
    185. D(H   8,O  12,H  11,H  14)   -102.2695         0.001858   
    186. D(H   8,O  12,H  11,H   4)   -135.9514         0.001858   
    187. D(H   8,O  12,H  11,O   9)    -57.8324         0.001858   
    188. D(H  14,O  12,H  11,H   4)    -33.6819         0.001858   
    189. D(H  14,O  12,H  11,O   9)     44.4371         0.001858   
    190. D(H  13,O  12,H  11,H  14)    117.0667         0.001858   
    191. D(H  13,O  12,H  11,H   4)     83.3848         0.001858   
    192. D(H  13,O  12,H  11,O   9)    161.5037         0.001858   
    193. D(H  11,O  12,H   8,H  20)     52.5664         0.002104   
    194. D(H  11,O  12,H   8,H  14)     96.8892         0.002104   
    195. D(H   8,H  14,O  12,H  11)    -91.1947         0.331804   
    196. D(H   8,H  14,O  12,H  13)    134.6807         0.331804   
    197. D(H  11,H  14,O  12,H  13)   -134.1246         0.331804   
    198. D(O   0,H  14,O  12,H   8)     50.6397         0.331804   
    199. D(O   0,H  14,O  12,H  11)    -40.5549         0.331804   
    200. D(O   0,H  14,O  12,H  13)   -174.6796         0.331804   
    201. D(H   8,H  14,H  11,O  12)     55.9749         0.001520   
    202. D(H   8,H  14,H  11,H   4)   -150.0939         0.001520   
    203. D(H   8,H  14,H  11,O   9)   -101.6766         0.001520   
    204. D(O   0,H  14,H  11,O  12)    168.6865         0.001520   
    205. D(O  12,H  14,H  11,H   4)    153.9312         0.001520   
    206. D(H  11,H  14,H   8,H  20)     75.8275         0.001518   
    207. D(H  11,H  14,H   8,O   6)     94.2669         0.001518   
    208. D(O   0,H  14,H   8,H  20)    -28.2060         0.001518   
    209. D(O   0,H  14,H   8,O  12)   -165.7975         0.001518   
    210. D(H  11,H  14,H   8,O  12)    -61.7639         0.001518   
    211. D(O   0,H  14,H   8,O   6)     -9.7667         0.001518   
    212. D(O  12,H  14,H   8,H  20)    137.5914         0.001518   
    213. D(O  12,H  14,H  11,O   9)   -157.6515         0.001520   
    214. D(O  12,H  14,H   8,O   6)    156.0308         0.001518   
    215. D(H   8,H  14,O   0,H  19)     31.5254         0.002514   
    216. D(O   0,H  14,H  11,H   4)    -37.3823         0.001520   
    217. D(H   8,H  14,O   0,H   2)    -95.0593         0.002514   
    218. D(H   8,H  14,O   0,H   1)    143.2961         0.002514   
    219. D(O   0,H  14,H  11,O   9)     11.0350         0.001520   
    220. D(H  11,H  14,O   0,H  19)    -46.6284         0.002514   
    221. D(H  11,H  14,O   0,H   2)   -173.2131         0.002514   
    222. D(O  12,H  14,O   0,H  19)    -11.3196         0.002514   
    223. D(H  11,H  14,O  12,H   8)     91.1947         0.331804   
    224. D(O  12,H  14,O   0,H   1)    100.4511         0.002514   
    225. D(O  12,H  14,O   0,H   2)   -137.9044         0.002514   
    226. D(H  11,H  14,O   0,H   1)     65.1423         0.002514   
    227. D(H   1,O  15,O   3,H   5)   -109.6170         0.001502   
    228. D(H   1,O  15,O   3,H   4)     -1.0318         0.001502   
    229. D(H  17,O  15,O   3,H   5)     -2.8174         0.001502   
    230. D(H  17,O  15,O   3,H   4)    105.7678         0.001502   
    231. D(H  17,O  15,H   1,H  16)   -107.5345         0.003037   
    232. D(H  17,O  15,H   1,O   0)    -69.0115         0.003037   
    233. D(H  16,O  15,H   1,H  17)    107.5345         0.003037   
    234. D(H  16,O  15,H   1,O   0)     38.5231         0.003037   
    235. D(H   1,H  16,H   5,O   3)     91.4625         0.001526   
    236. D(O  15,H  16,H   5,O   3)    170.5238         0.001526   
    237. D(H   5,H  16,O   3,H   4)    109.0956         0.002663   
    238. D(H   1,H  16,O   3,H   4)     -0.2576         0.002663   
    239. D(H   5,H  16,H   1,H  17)    106.9795         0.001543   
    240. D(H   5,H  16,H   1,O  15)    145.5583         0.001543   
    241. D(H   5,H  16,H   1,O   0)    -27.3120         0.001543   
    242. D(O   3,H  16,H   1,H  17)    140.1292         0.001543   
    243. D(H   1,H  16,O   3,H   5)   -109.3532         0.002663   
    244. D(O   3,H  16,H   1,O  15)    178.7080         0.001543   
    245. D(O   3,H  16,H   1,O   0)      5.8377         0.001543   
    246. D(O  15,H  16,H   1,H  17)    -38.5788         0.001543   
    247. D(H   1,H  16,O  15,H  17)    107.5612         0.294015   
    248. D(O  15,H  16,H   1,O   0)   -172.8703         0.001543   
    249. D(H   5,H  16,O  15,H   1)   -101.6446         0.294015   
    250. D(H   5,H  16,O  15,H  17)      5.9165         0.294015   
    251. D(H   1,H  17,O  15,H  16)   -106.0531         0.325310   
    252. D(O  15,H  17,H   1,H  16)     40.5915         0.001535   
    253. D(O  15,H  17,H   1,O   0)    168.1009         0.001535   
    254. D(H  20,O  18,H  10,H  19)    102.1197         0.002124   
    255. D(H  20,O  18,H  10,H   4)    147.0841         0.002124   
    256. D(H  20,O  18,H  10,O   9)     54.8870         0.002124   
    257. D(H  19,O  18,H  10,H  20)   -102.1197         0.002124   
    258. D(H  19,O  18,H  10,H   4)     44.9644         0.002124   
    259. D(H  19,O  18,H  10,O   9)    -47.2327         0.002124   
    260. D(H  10,H  19,O  18,H  20)    -92.8564         0.311269   
    261. D(O   0,H  19,O  18,H  10)     31.9993         0.311269   
    262. D(O   0,H  19,O  18,H  20)    -60.8572         0.311269   
    263. D(O   0,H  19,H  10,O  18)   -170.0686         0.001540   
    264. D(O   0,H  19,H  10,H   4)     43.9686         0.001540   
    265. D(O   0,H  19,H  10,O   9)     -6.5316         0.001540   
    266. D(O  18,H  19,H  10,H  20)     43.4417         0.001540   
    267. D(O  18,H  19,H  10,H   4)   -145.9628         0.001540   
    268. D(O  18,H  19,H  10,O   9)    163.5371         0.001540   
    269. D(H  10,H  19,O   0,H  14)     45.5608         0.001914   
    270. D(H  10,H  19,O   0,H   2)    168.3250         0.001914   
    271. D(O   0,H  19,H  10,H  20)   -126.6269         0.001540   
    272. D(H  10,H  19,O   0,H   1)    -67.9775         0.001914   
    273. D(O  18,H  19,O   0,H  14)     17.8871         0.001914   
    274. D(O  18,H  19,O   0,H   2)    140.6513         0.001914   
    275. D(O  18,H  19,O   0,H   1)    -95.6512         0.001914   
    276. D(H   8,H  20,O  18,H  10)    -48.7716         0.356991   
    277. D(H   8,H  20,O  18,H  19)     46.9487         0.356991   
    278. D(H   7,H  20,O  18,H  10)     20.8437         0.356991   
    279. D(H   7,H  20,O  18,H  19)    116.5640         0.356991   
    280. D(O   6,H  20,O  18,H  10)    -37.6815         0.356991   
    281. D(H  10,H  20,O  18,H  19)     95.7204         0.356991   
    282. D(H   8,H  20,H  10,H  19)    106.8732         0.001565   
    283. D(H   8,H  20,H  10,O  18)    148.6822         0.001565   
    284. D(H   8,H  20,H  10,O   9)    -12.8355         0.001565   
    285. D(H   7,H  20,H  10,H  19)    148.6499         0.001565   
    286. D(H   7,H  20,H  10,O  18)   -169.5410         0.001565   
    287. D(H   7,H  20,H  10,O   9)     28.9413         0.001565   
    288. D(O   6,H  20,H  10,H  19)    127.9403         0.001565   
    289. D(O   6,H  20,H  10,O  18)    169.7494         0.001565   
    290. D(O   6,H  20,H  10,H   4)    108.4991         0.001565   
    291. D(O   6,H  20,H  10,O   9)      8.2317         0.001565   
    292. D(O  18,H  20,H  10,H  19)    -41.8091         0.001565   
    293. D(O  18,H  20,H  10,H   4)    -61.2503         0.001565   
    294. D(O  18,H  20,H  10,O   9)   -161.5177         0.001565   
    295. D(H   7,H  20,H   8,H  14)   -153.9355         0.001538   
    296. D(H   7,H  20,H   8,O  12)   -135.7964         0.001538   
    297. D(H   7,H  20,H   8,O   6)     39.2117         0.001538   
    298. D(O   6,H  20,H   8,H  14)    166.8528         0.001538   
    299. D(O   6,H  20,H   8,O  12)   -175.0081         0.001538   
    300. D(H  10,H  20,H   8,H  14)    -59.9221         0.001538   
    301. D(H  10,H  20,H   8,O  12)    -41.7830         0.001538   
    302. D(H  10,H  20,H   8,O   6)    133.2251         0.001538   
    303. D(H   7,H  20,H  10,H   4)    129.2087         0.001565   
    304. D(O  18,H  20,H   8,H  14)    -19.6651         0.001538   
    305. D(O  18,H  20,H   8,O  12)     -1.5260         0.001538   
    306. D(O  18,H  20,H   8,O   6)    173.4821         0.001538   
    307. D(H   8,H  20,H  10,H   4)     87.4319         0.001565   
    308. D(H   8,H  20,H   7,O   6)    -43.0626         0.001517   
    309. D(H  10,H  20,H   7,O   6)   -129.2643         0.001517   
    310. D(O  18,H  20,H   7,O   6)   -147.0711         0.001517   
    311. D(O   6,H  20,O  18,H  19)     58.0389         0.356991   
    312. D(H   8,H  20,O   6,H   7)    104.1635         0.001961   
    313. D(H   7,H  20,O   6,H   8)   -104.1635         0.001961   
    314. D(H  10,H  20,O   6,H   8)    -49.8622         0.001961   
    315. D(H  10,H  20,O   6,H   7)     54.3012         0.001961   
    316. D(O  18,H  20,O   6,H   8)    -16.4233         0.001961   
    317. D(O  18,H  20,O   6,H   7)     87.7401         0.001961   
    -----------------------------------------------------------------

Number of atoms                         .... 21
Number of degrees of freedom            .... 317

         *************************************************************
         *                GEOMETRY OPTIMIZATION CYCLE   1            *
         *************************************************************
---------------------------------
CARTESIAN COORDINATES (ANGSTROEM)
---------------------------------
  O      7.310951    5.266465    3.671023
  H      7.419206    5.973772    4.374091
  H      8.205590    4.963873    3.468589
  O      4.853700    7.573981    5.729785
  H      4.433526    6.904653    5.122247
  H      4.676691    8.418455    5.294511
  O      4.648139    3.389380    1.640772
  H      3.686930    3.474250    1.695663
  H      4.915767    3.264683    2.579747
  O      3.816987    5.800129    4.050836
  H      4.313992    6.005823    3.220549
  H      4.214196    4.942485    4.309589
  O      5.377178    3.553585    4.237045
  H      5.577913    2.889879    4.909141
  H      6.201870    4.096312    4.133896
  O      7.454915    7.193634    5.430875
  H      6.483224    7.362144    5.580317
  H      7.740320    7.949506    4.900597
  O      5.401425    6.014110    1.861999
  H      6.210500    5.849383    2.393685
  H      5.136497    5.100528    1.606885

----------------------------
CARTESIAN COORDINATES (A.U.)
----------------------------
  NO LB      ZA    FRAG     MASS         X           Y           Z
   0 O     8.0000    0    15.999   13.815696    9.952177    6.937228
   1 H     1.0000    0     1.008   14.020268   11.288794    8.265833
   2 H     1.0000    0     1.008   15.506318    9.380360    6.554684
   3 O     8.0000    0    15.999    9.172163   14.312750   10.827724
   4 H     1.0000    0     1.008    8.378150   13.047902    9.679644
   5 H     1.0000    0     1.008    8.837666   15.908574   10.005176
   6 O     8.0000    0    15.999    8.783710    6.405001    3.100609
   7 H     1.0000    0     1.008    6.967288    6.565381    3.204339
   8 H     1.0000    0     1.008    9.289453    6.169356    4.875015
   9 O     8.0000    0    15.999    7.213061   10.960656    7.654971
  10 H     1.0000    0     1.008    8.152264   11.349361    6.085956
  11 H     1.0000    0     1.008    7.963676    9.339943    8.143944
  12 O     8.0000    0    15.999   10.161395    6.715303    8.006855
  13 H     1.0000    0     1.008   10.540728    5.461080    9.276931
  14 H     1.0000    0     1.008   11.719837    7.740908    7.811931
  15 O     8.0000    0    15.999   14.087748   13.593997   10.262866
  16 H     1.0000    0     1.008   12.251518   13.912435   10.545271
  17 H     1.0000    0     1.008   14.627086   15.022389    9.260787
  18 O     8.0000    0    15.999   10.207214   11.365021    3.518667
  19 H     1.0000    0     1.008   11.736144   11.053731    4.523409
  20 H     1.0000    0     1.008    9.706573    9.638602    3.036572

--------------------------------
INTERNAL COORDINATES (ANGSTROEM)
--------------------------------
 O      0   0   0     0.000000000000     0.00000000     0.00000000
 H      1   0   0     1.003148595233     0.00000000     0.00000000
 H      1   2   0     0.965878113704   105.53489499     0.00000000
 O      2   1   3     3.313668463085   122.93465075   180.86384936
 H      4   2   1     0.996819467481    75.68438695     3.56699565
 H      4   2   1     0.966401074221   112.30402639   264.50536100
 O      1   2   3     3.838741404227   142.21437346   178.54335856
 H      7   1   2     0.966508185090   128.08932912   357.96357312
 H      7   1   2     0.984301341672    50.86216038   283.35484568
 O      5   4   2     1.657713029593   176.44728102   328.96417143
 H     10   5   4     0.989292930355   102.53609790   339.05746036
 H     10   5   4     0.979939886573   105.17248342    84.87201875
 O      9   7   1     1.744420625258   163.18522356    43.50839121
 H     13   9   7     0.965666777315   127.04099117   179.77186216
 H     13   9   7     0.992627475540   102.21510569   300.86321601
 O      2   1   3     1.614351085713   173.70617953   145.67304412
 H     16   2   1     0.997452691429   101.78188326    38.52305043
 H     16   2   1     0.966433438491   103.78907268   290.98852386
 O     11  10   5     1.740183243742   165.96390891   104.28523689
 H     19  11  10     0.982052736118    95.24173103   312.76732164
 H     19  11  10     0.984835589579    91.70272999    54.88697793

---------------------------
INTERNAL COORDINATES (A.U.)
---------------------------
 O      0   0   0     0.000000000000     0.00000000     0.00000000
 H      1   0   0     1.895676116618     0.00000000     0.00000000
 H      1   2   0     1.825245113649   105.53489499     0.00000000
 O      2   1   3     6.261925893843   122.93465075   180.86384936
 H      4   2   1     1.883715798501    75.68438695     3.56699565
 H      4   2   1     1.826233365805   112.30402639   264.50536100
 O      1   2   3     7.254169952934   142.21437346   178.54335856
 H      7   1   2     1.826435776013   128.08932912   357.96357312
 H      7   1   2     1.860059969011    50.86216038   283.35484568
 O      5   4   2     3.132623634564   176.44728102   328.96417143
 H     10   5   4     1.869492704595   102.53609790   339.05746036
 H     10   5   4     1.851818013329   105.17248342    84.87201875
 O      9   7   1     3.296477244101   163.18522356    43.50839121
 H     13   9   7     1.824845745752   127.04099117   179.77186216
 H     13   9   7     1.875794081776   102.21510569   300.86321601
 O      2   1   3     3.050681435996   173.70617953   145.67304412
 H     16   2   1     1.884912418343   101.78188326    38.52305043
 H     16   2   1     1.826294525412   103.78907268   290.98852386
 O     11  10   5     3.288469753511   165.96390891   104.28523689
 H     19  11  10     1.855810720332    95.24173103   312.76732164
 H     19  11  10     1.861069551243    91.70272999    54.88697793

---------------------
BASIS SET INFORMATION
---------------------
There are 2 groups of distinct atoms

 Group   1 Type O   : 7s4p1d contracted to 3s2p1d pattern {511/31/1}
 Group   2 Type H   : 4s1p contracted to 2s1p pattern {31/1}

Atom   0O    basis set group =>   1
Atom   1H    basis set group =>   2
Atom   2H    basis set group =>   2
Atom   3O    basis set group =>   1
Atom   4H    basis set group =>   2
Atom   5H    basis set group =>   2
Atom   6O    basis set group =>   1
Atom   7H    basis set group =>   2
Atom   8H    basis set group =>   2
Atom   9O    basis set group =>   1
Atom  10H    basis set group =>   2
Atom  11H    basis set group =>   2
Atom  12O    basis set group =>   1
Atom  13H    basis set group =>   2
Atom  14H    basis set group =>   2
Atom  15O    basis set group =>   1
Atom  16H    basis set group =>   2
Atom  17H    basis set group =>   2
Atom  18O    basis set group =>   1
Atom  19H    basis set group =>   2
Atom  20H    basis set group =>   2
[1615912894.967494] [comp0807:121824:0]            sys.c:618  UCX  ERROR shmget(size=2097152 flags=0xfb0) for mm_recv_desc failed: Operation not permitted, please check shared memory limits by 'ipcs -l'
[1615912894.968842] [comp0807:121822:0]            sys.c:618  UCX  ERROR shmget(size=2097152 flags=0xfb0) for mm_recv_desc failed: Operation not permitted, please check shared memory limits by 'ipcs -l'
[1615912894.989783] [comp0807:121823:0]            sys.c:618  UCX  ERROR shmget(size=2097152 flags=0xfb0) for mm_recv_desc failed: Operation not permitted, please check shared memory limits by 'ipcs -l'
[1615912894.990598] [comp0807:121825:0]            sys.c:618  UCX  ERROR shmget(size=2097152 flags=0xfb0) for mm_recv_desc failed: Operation not permitted, please check shared memory limits by 'ipcs -l'
[1615912894.998934] [comp0807:121822:0]            sys.c:618  UCX  ERROR shmget(size=2097152 flags=0xb80) for ucp_am_bufs failed: Operation not permitted, please check shared memory limits by 'ipcs -l'
[1615912895.003583] [comp0807:121825:0]            sys.c:618  UCX  ERROR shmget(size=2097152 flags=0xb80) for ucp_am_bufs failed: Operation not permitted, please check shared memory limits by 'ipcs -l'
[1615912895.003651] [comp0807:121824:0]            sys.c:618  UCX  ERROR shmget(size=2097152 flags=0xb80) for ucp_am_bufs failed: Operation not permitted, please check shared memory limits by 'ipcs -l'
[1615912895.004461] [comp0807:121823:0]            sys.c:618  UCX  ERROR shmget(size=2097152 flags=0xb80) for ucp_am_bufs failed: Operation not permitted, please check shared memory limits by 'ipcs -l'


           ************************************************************
           *        Program running with 4 parallel MPI-processes     *
           *              working on a common directory               *
           ************************************************************
------------------------------------------------------------------------------
                           ORCA GTO INTEGRAL CALCULATION
------------------------------------------------------------------------------

                         BASIS SET STATISTICS AND STARTUP INFO

 # of primitive gaussian shells          ...  154
 # of primitive gaussian functions       ...  266
 # of contracted shells                  ...   84
 # of contracted basis functions         ...  168
 Highest angular momentum                ...    2
 Maximum contraction depth               ...    5
 Integral package used                   ... LIBINT
 Integral threshhold            Thresh   ...  2.500e-11
 Primitive cut-off              TCut     ...  2.500e-12


------------------------------ INTEGRAL EVALUATION ----------------------------


 * One electron integrals 
 Pre-screening matrix                    ... done
 Shell pair data                         ... done (   0.001 sec)

[1615912896.175926] [comp0807:121844:0]            sys.c:618  UCX  ERROR shmget(size=2097152 flags=0xfb0) for mm_recv_desc failed: Operation not permitted, please check shared memory limits by 'ipcs -l'
[1615912896.192950] [comp0807:121846:0]            sys.c:618  UCX  ERROR shmget(size=2097152 flags=0xfb0) for mm_recv_desc failed: Operation not permitted, please check shared memory limits by 'ipcs -l'
[1615912896.223045] [comp0807:121845:0]            sys.c:618  UCX  ERROR shmget(size=2097152 flags=0xfb0) for mm_recv_desc failed: Operation not permitted, please check shared memory limits by 'ipcs -l'
[1615912896.223604] [comp0807:121847:0]            sys.c:618  UCX  ERROR shmget(size=2097152 flags=0xfb0) for mm_recv_desc failed: Operation not permitted, please check shared memory limits by 'ipcs -l'
[1615912896.231544] [comp0807:121846:0]            sys.c:618  UCX  ERROR shmget(size=2097152 flags=0xb80) for ucp_am_bufs failed: Operation not permitted, please check shared memory limits by 'ipcs -l'
[1615912896.231546] [comp0807:121844:0]            sys.c:618  UCX  ERROR shmget(size=2097152 flags=0xb80) for ucp_am_bufs failed: Operation not permitted, please check shared memory limits by 'ipcs -l'


           ************************************************************
           *        Program running with 4 parallel MPI-processes     *
           *              working on a common directory               *
           ************************************************************
[1615912896.234917] [comp0807:121845:0]            sys.c:618  UCX  ERROR shmget(size=2097152 flags=0xb80) for ucp_am_bufs failed: Operation not permitted, please check shared memory limits by 'ipcs -l'
[1615912896.235572] [comp0807:121847:0]            sys.c:618  UCX  ERROR shmget(size=2097152 flags=0xb80) for ucp_am_bufs failed: Operation not permitted, please check shared memory limits by 'ipcs -l'
-------------------------------------------------------------------------------
                                 ORCA SCF
-------------------------------------------------------------------------------

------------
SCF SETTINGS
------------
Hamiltonian:
 Density Functional     Method          .... DFT(GTOs)
 Exchange Functional    Exchange        .... PBE
   PBE kappa parameter   XKappa         ....  0.804000
   PBE mue parameter    XMuePBE         ....  0.219520
 Correlation Functional Correlation     .... PBE
   PBE beta parameter  CBetaPBE         ....  0.066725
 LDA part of GGA corr.  LDAOpt          .... PW91-LDA
 Gradients option       PostSCFGGA      .... off
 Hybrid DFT is turned on
   Fraction HF Exchange ScalHFX         ....  0.250000
   Scaling of DF-GGA-X  ScalDFX         ....  0.750000
   Scaling of DF-GGA-C  ScalDFC         ....  1.000000
   Scaling of DF-LDA-C  ScalLDAC        ....  1.000000
   Perturbative correction              ....  0.000000
   Density functional embedding theory  .... OFF
   NL short-range parameter             ....  6.900000


General Settings:
 Integral files         IntName         .... septamer3
 Hartree-Fock type      HFTyp           .... RHF
 Total Charge           Charge          ....    0
 Multiplicity           Mult            ....    1
 Number of Electrons    NEL             ....   70
 Basis Dimension        Dim             ....  168
 Nuclear Repulsion      ENuc            ....    396.7078641306 Eh

Convergence Acceleration:
 DIIS                   CNVDIIS         .... on
   Start iteration      DIISMaxIt       ....    12
   Startup error        DIISStart       ....  0.200000
   # of expansion vecs  DIISMaxEq       ....     5
   Bias factor          DIISBfac        ....   1.050
   Max. coefficient     DIISMaxC        ....  10.000
 Newton-Raphson         CNVNR           .... off
 SOSCF                  CNVSOSCF        .... on
   Start iteration      SOSCFMaxIt      ....   150
   Startup grad/error   SOSCFStart      ....  0.003300
 Level Shifting         CNVShift        .... on
   Level shift para.    LevelShift      ....    0.2500
   Turn off err/grad.   ShiftErr        ....    0.0010
 Zerner damping         CNVZerner       .... off
 Static damping         CNVDamp         .... on
   Fraction old density DampFac         ....    0.7000
   Max. Damping (<1)    DampMax         ....    0.9800
   Min. Damping (>=0)   DampMin         ....    0.0000
   Turn off err/grad.   DampErr         ....    0.1000
 Fernandez-Rico         CNVRico         .... off

SCF Procedure:
 Maximum # iterations   MaxIter         ....   125
 SCF integral mode      SCFMode         .... Direct
   Integral package                     .... LIBINT
 Reset frequency        DirectResetFreq ....    20
 Integral Threshold     Thresh          ....  2.500e-11 Eh
 Primitive CutOff       TCut            ....  2.500e-12 Eh

Convergence Tolerance:
 Convergence Check Mode ConvCheckMode   .... Total+1el-Energy
 Convergence forced     ConvForced      .... 0
 Energy Change          TolE            ....  1.000e-08 Eh
 1-El. energy change                    ....  1.000e-05 Eh
 Orbital Gradient       TolG            ....  1.000e-05
 Orbital Rotation angle TolX            ....  1.000e-05
 DIIS Error             TolErr          ....  5.000e-07


Diagonalization of the overlap matrix:
Smallest eigenvalue                        ... 2.206e-02
Time for diagonalization                   ...    0.007 sec
Threshold for overlap eigenvalues          ... 1.000e-08
Number of eigenvalues below threshold      ... 0
Time for construction of square roots      ...    0.002 sec
Total time needed                          ...    0.010 sec

-------------------
DFT GRID GENERATION
-------------------

General Integration Accuracy     IntAcc      ...  4.340
Radial Grid Type                 RadialGrid  ... Gauss-Chebyshev
Angular Grid (max. acc.)         AngularGrid ... Lebedev-110
Angular grid pruning method      GridPruning ... 3 (G Style)
Weight generation scheme         WeightScheme... Becke
Basis function cutoff            BFCut       ...    1.0000e-11
Integration weight cutoff        WCut        ...    1.0000e-14
Grids for H and He will be reduced by one unit

# of grid points (after initial pruning)     ...  23128 (   0.0 sec)
# of grid points (after weights+screening)   ...  21397 (   0.0 sec)
nearest neighbour list constructed           ...    0.0 sec
Grid point re-assignment to atoms done       ...    0.0 sec
Grid point division into batches done        ...    0.0 sec
Reduced shell lists constructed in    0.1 sec

Total number of grid points                  ...    21397
Total number of batches                      ...      343
Average number of points per batch           ...       62
Average number of grid points per atom       ...     1019
Average number of shells per batch           ...    53.45 (63.63%)
Average number of basis functions per batch  ...    96.78 (57.61%)
Average number of large shells per batch     ...    37.34 (69.87%)
Average number of large basis fcns per batch ...    64.36 (66.50%)
Maximum spatial batch extension              ...  15.93, 18.71, 18.30 au
Average spatial batch extension              ...   0.89,  0.83,  0.94 au

Time for grid setup =    0.119 sec

------------------------------
INITIAL GUESS: MODEL POTENTIAL
------------------------------
Loading Hartree-Fock densities                     ... done
Calculating cut-offs                               ... done
Setting up the integral package                    ... done
Initializing the effective Hamiltonian             ... done
Starting the Coulomb interaction                   ... done (   0.0 sec)
Reading the grid                                   ... done
Mapping shells                                     ... done
Starting the XC term evaluation                    ... done (   0.0 sec)
  promolecular density results
     # of electrons  =     69.980568055
     EX              =    -61.209994267
     EC              =     -2.288905415
     EX+EC           =    -63.498899683
Transforming the Hamiltonian                       ... done (   0.0 sec)
Diagonalizing the Hamiltonian                      ... done (   0.0 sec)
Back transforming the eigenvectors                 ... done (   0.0 sec)
Now organizing SCF variables                       ... done
                      ------------------
                      INITIAL GUESS DONE (   0.3 sec)
                      ------------------

--------------------
CPCM SOLVATION MODEL
--------------------
CPCM parameters:
  Epsilon                                         ...      78.3550
  Refrac                                          ...       1.3300
  Rsolv                                           ...       1.3000
  Surface type                                    ...    GEPOL SES
  Epsilon function type                           ...         CPCM
Solvent:                                     ... WATER
SMD-CDS solvent descriptors:
  Soln                                       ...    1.3328
  Soln25                                     ...    1.3323
  Sola                                       ...    0.0000
  Solb                                       ...    0.0000
  Solg                                       ...    0.0000
  Solc                                       ...    0.0000
  Solh                                       ...    0.0000
Radii:
 Radius for O  used is    2.8724 Bohr (=   1.5200 Ang.)
 Radius for H  used is    2.2677 Bohr (=   1.2000 Ang.)
Calculating surface                               ...        done! (  0.1s)
GEPOL surface points                              ...         1164
GEPOL Volume                                      ...     883.4908
GEPOL Surface-area                                ...     579.2062
Calculating surface distance matrix               ...        done! (  0.0s)
Performing Cholesky decomposition & store         ...        done! (  0.1s)
Overall time for CPCM initialization              ...                 0.2s
--------------
SCF ITERATIONS
--------------
ITER       Energy         Delta-E        Max-DP      RMS-DP      [F,P]     Damp
               ***  Starting incremental Fock matrix formation  ***
  0   -533.7029859048   0.000000000000 0.07431037  0.00279992  0.2623980 0.7000
  1   -533.9032118890  -0.200225984243 0.04302890  0.00165187  0.1215807 0.7000
                               ***Turning on DIIS***
  2   -533.9779230778  -0.074711188831 0.05534989  0.00213661  0.0401839 0.0000
  3   -534.0973876810  -0.119464603108 0.02724207  0.00105985  0.0641375 0.0000
  4   -534.1223118453  -0.024924164328 0.00495081  0.00023147  0.0116469 0.0000
                      *** Initiating the SOSCF procedure ***
                           *** Shutting down DIIS ***
                      *** Re-Reading the Fockian *** 
                      *** Removing any level shift *** 
ITER      Energy       Delta-E        Grad      Rot      Max-DP    RMS-DP
  5   -534.12319426  -0.0008824102  0.000523  0.000523  0.001494  0.000067
               *** Restarting incremental Fock matrix formation ***
  6   -534.12323830  -0.0000440420  0.000387  0.000508  0.001216  0.000043
  7   -534.12323956  -0.0000012634  0.000397  0.000214  0.000729  0.000016
  8   -534.12324354  -0.0000039790  0.000015  0.000027  0.000062  0.000003
  9   -534.12324354  -0.0000000006  0.000017  0.000007  0.000039  0.000001
                  ***Gradient check signals convergence***
              ***Rediagonalizing the Fockian in SOSCF/NRSCF***

               *****************************************************
               *                     SUCCESS                       *
               *           SCF CONVERGED AFTER  10 CYCLES          *
               *****************************************************

Setting up the final grid:

General Integration Accuracy     IntAcc      ...  4.670
Radial Grid Type                 RadialGrid  ... Gauss-Chebyshev
Angular Grid (max. acc.)         AngularGrid ... Lebedev-302
Angular grid pruning method      GridPruning ... 3 (G Style)
Weight generation scheme         WeightScheme... Becke
Basis function cutoff            BFCut       ...    1.0000e-11
Integration weight cutoff        WCut        ...    1.0000e-14
Grids for H and He will be reduced by one unit

# of grid points (after initial pruning)     ...  91000 (   0.0 sec)
# of grid points (after weights+screening)   ...  82904 (   0.1 sec)
nearest neighbour list constructed           ...    0.0 sec
Grid point re-assignment to atoms done       ...    0.0 sec
Grid point division into batches done        ...    0.2 sec
Reduced shell lists constructed in    0.4 sec

Total number of grid points                  ...    82904
Total number of batches                      ...     1307
Average number of points per batch           ...       63
Average number of grid points per atom       ...     3948
Average number of shells per batch           ...    48.61 (57.87%)
Average number of basis functions per batch  ...    86.77 (51.65%)
Average number of large shells per batch     ...    33.68 (69.28%)
Average number of large basis fcns per batch ...    57.48 (66.24%)
Maximum spatial batch extension              ...  14.59, 16.85, 16.53 au
Average spatial batch extension              ...   0.58,  0.57,  0.59 au

Final grid set up in    0.5 sec
Final integration                            ... done (   0.2 sec)
Change in XC energy                          ...    -0.001127663
Integrated number of electrons               ...    69.999882855
Previous integrated no of electrons          ...    69.989478800

SMD CDS free energy correction energy :                 5.34975     Kcal/mol
Total Energy after SMD CDS correction =              -534.115845848 Eh

----------------
TOTAL SCF ENERGY
----------------

Total Energy       :         -534.11584585 Eh          -14534.03106 eV

Components:
Nuclear Repulsion  :          396.70786413 Eh           10794.96979 eV
Electronic Energy  :         -930.82370998 Eh          -25329.00085 eV
One Electron Energy:        -1525.94111999 Eh          -41522.96886 eV
Two Electron Energy:          595.11741001 Eh           16193.96801 eV
CPCM Dielectric    :           -0.05281511 Eh              -1.43717 eV
SMD CDS (Gcds)     :            0.00852537 Eh               0.23199 eV

Virial components:
Potential Energy   :        -1064.41242700 Eh          -28964.13465 eV
Kinetic Energy     :          530.29658115 Eh           14430.10359 eV
Virial Ratio       :            2.00720213


DFT components:
N(Alpha)           :       34.999941427721 electrons
N(Beta)            :       34.999941427721 electrons
N(Total)           :       69.999882855442 electrons
E(X)               :      -46.878400594299 Eh       
E(C)               :       -2.356921461823 Eh       
E(XC)              :      -49.235322056122 Eh       
DFET-embed. en.    :        0.000000000000 Eh       
CPCM Solvation Model Properties:
Surface-charge          :           -0.02971784
Charge-correction       :            0.00001508 Eh               0.00041 eV
Free-energy (cav+disp)  :            0.00385344 Eh               0.10486 eV
Corrected G(solv)       :         -534.11197733 Eh          -14533.92579 eV

---------------
SCF CONVERGENCE
---------------

  Last Energy change         ...   -1.4088e-08  Tolerance :   1.0000e-08
  Last MAX-Density change    ...    6.7714e-06  Tolerance :   1.0000e-07
  Last RMS-Density change    ...    2.3893e-07  Tolerance :   5.0000e-09
  Last Orbital Gradient      ...    1.1328e-06  Tolerance :   1.0000e-05
  Last Orbital Rotation      ...    2.8241e-06  Tolerance :   1.0000e-05

             **** THE GBW FILE WAS UPDATED (septamer3.gbw) ****
             **** DENSITY FILE WAS UPDATED (septamer3.scfp) ****
             **** ENERGY FILE WAS UPDATED (septamer3.en.tmp) ****
             **** THE GBW FILE WAS UPDATED (septamer3.gbw) ****
             **** DENSITY FILE WAS UPDATED (septamer3.scfp) ****
----------------
ORBITAL ENERGIES
----------------

  NO   OCC          E(Eh)            E(eV) 
   0   2.0000     -19.212491      -522.7985 
   1   2.0000     -19.211044      -522.7591 
   2   2.0000     -19.201355      -522.4954 
   3   2.0000     -19.200511      -522.4725 
   4   2.0000     -19.197442      -522.3890 
   5   2.0000     -19.191163      -522.2181 
   6   2.0000     -19.189067      -522.1611 
   7   2.0000      -1.035211       -28.1695 
   8   2.0000      -1.021704       -27.8020 
   9   2.0000      -1.015247       -27.6263 
  10   2.0000      -1.009517       -27.4704 
  11   2.0000      -1.005340       -27.3567 
  12   2.0000      -0.992608       -27.0102 
  13   2.0000      -0.984863       -26.7995 
  14   2.0000      -0.553926       -15.0731 
  15   2.0000      -0.543328       -14.7847 
  16   2.0000      -0.531193       -14.4545 
  17   2.0000      -0.528795       -14.3892 
  18   2.0000      -0.527553       -14.3555 
  19   2.0000      -0.520412       -14.1611 
  20   2.0000      -0.519506       -14.1365 
  21   2.0000      -0.446234       -12.1426 
  22   2.0000      -0.431776       -11.7492 
  23   2.0000      -0.412192       -11.2163 
  24   2.0000      -0.407250       -11.0818 
  25   2.0000      -0.393697       -10.7130 
  26   2.0000      -0.391052       -10.6411 
  27   2.0000      -0.370760       -10.0889 
  28   2.0000      -0.332494        -9.0476 
  29   2.0000      -0.330165        -8.9842 
  30   2.0000      -0.322246        -8.7688 
  31   2.0000      -0.321014        -8.7352 
  32   2.0000      -0.317946        -8.6518 
  33   2.0000      -0.312612        -8.5066 
  34   2.0000      -0.309232        -8.4146 
  35   0.0000       0.057131         1.5546 
  36   0.0000       0.088936         2.4201 
  37   0.0000       0.106530         2.8988 
  38   0.0000       0.118635         3.2282 
  39   0.0000       0.137169         3.7326 
  40   0.0000       0.173376         4.7178 
  41   0.0000       0.191239         5.2039 
  42   0.0000       0.226941         6.1754 
  43   0.0000       0.238922         6.5014 
  44   0.0000       0.268979         7.3193 
  45   0.0000       0.271920         7.3993 
  46   0.0000       0.275847         7.5062 
  47   0.0000       0.303372         8.2552 
  48   0.0000       0.312412         8.5012 
  49   0.0000       0.491573        13.3764 
  50   0.0000       0.505972        13.7682 
  51   0.0000       0.514955        14.0126 
  52   0.0000       0.523475        14.2445 
  53   0.0000       0.543020        14.7763 
  54   0.0000       0.575693        15.6654 
  55   0.0000       0.598011        16.2727 
  56   0.0000       0.609732        16.5917 
  57   0.0000       0.634486        17.2653 
  58   0.0000       0.645122        17.5547 
  59   0.0000       0.658304        17.9134 
  60   0.0000       0.670382        18.2420 
  61   0.0000       0.683789        18.6068 
  62   0.0000       0.698014        18.9939 
  63   0.0000       0.857421        23.3316 
  64   0.0000       0.879280        23.9264 
  65   0.0000       0.918133        24.9837 
  66   0.0000       0.919663        25.0253 
  67   0.0000       0.941798        25.6276 
  68   0.0000       0.967693        26.3323 
  69   0.0000       0.986871        26.8541 
  70   0.0000       0.997184        27.1348 
  71   0.0000       1.010711        27.5028 
  72   0.0000       1.021735        27.8028 
  73   0.0000       1.040073        28.3018 
  74   0.0000       1.043761        28.4022 
  75   0.0000       1.058357        28.7994 
  76   0.0000       1.077038        29.3077 
  77   0.0000       1.087549        29.5937 
  78   0.0000       1.108272        30.1576 
  79   0.0000       1.118367        30.4323 
  80   0.0000       1.166186        31.7335 
  81   0.0000       1.183588        32.2071 
  82   0.0000       1.192819        32.4583 
  83   0.0000       1.204365        32.7724 
  84   0.0000       1.234346        33.5883 
  85   0.0000       1.244254        33.8579 
  86   0.0000       1.277205        34.7545 
  87   0.0000       1.294166        35.2161 
  88   0.0000       1.309016        35.6201 
  89   0.0000       1.328891        36.1610 
  90   0.0000       1.346478        36.6395 
  91   0.0000       1.355310        36.8799 
  92   0.0000       1.364581        37.1321 
  93   0.0000       1.383258        37.6404 
  94   0.0000       1.388571        37.7849 
  95   0.0000       1.402269        38.1577 
  96   0.0000       1.436933        39.1009 
  97   0.0000       1.454346        39.5748 
  98   0.0000       1.460980        39.7553 
  99   0.0000       1.481412        40.3113 
 100   0.0000       1.517654        41.2975 
 101   0.0000       1.520673        41.3796 
 102   0.0000       1.528810        41.6010 
 103   0.0000       1.563268        42.5387 
 104   0.0000       1.581148        43.0252 
 105   0.0000       1.622199        44.1423 
 106   0.0000       1.636856        44.5411 
 107   0.0000       1.644260        44.7426 
 108   0.0000       1.665598        45.3232 
 109   0.0000       1.677886        45.6576 
 110   0.0000       1.696575        46.1662 
 111   0.0000       1.703923        46.3661 
 112   0.0000       1.771626        48.2084 
 113   0.0000       1.803804        49.0840 
 114   0.0000       1.839497        50.0553 
 115   0.0000       1.863408        50.7059 
 116   0.0000       1.912292        52.0361 
 117   0.0000       1.924182        52.3596 
 118   0.0000       1.970051        53.6078 
 119   0.0000       2.212952        60.2175 
 120   0.0000       2.223001        60.4909 
 121   0.0000       2.228941        60.6526 
 122   0.0000       2.230668        60.6996 
 123   0.0000       2.251147        61.2568 
 124   0.0000       2.347205        63.8707 
 125   0.0000       2.375912        64.6518 
 126   0.0000       2.390916        65.0601 
 127   0.0000       2.463470        67.0344 
 128   0.0000       2.506450        68.2040 
 129   0.0000       2.532130        68.9028 
 130   0.0000       2.560149        69.6652 
 131   0.0000       2.648724        72.0755 
 132   0.0000       2.674616        72.7800 
 133   0.0000       2.913394        79.2775 
 134   0.0000       2.937325        79.9287 
 135   0.0000       2.943859        80.1065 
 136   0.0000       2.952783        80.3493 
 137   0.0000       2.965092        80.6843 
 138   0.0000       2.973876        80.9233 
 139   0.0000       2.983394        81.1823 
 140   0.0000       2.986976        81.2797 
 141   0.0000       2.999646        81.6245 
 142   0.0000       3.015833        82.0650 
 143   0.0000       3.022971        82.2592 
 144   0.0000       3.037310        82.6494 
 145   0.0000       3.052457        83.0616 
 146   0.0000       3.070330        83.5479 
 147   0.0000       3.180127        86.5357 
 148   0.0000       3.188894        86.7742 
 149   0.0000       3.192002        86.8588 
 150   0.0000       3.197465        87.0074 
 151   0.0000       3.206474        87.2526 
 152   0.0000       3.209436        87.3332 
 153   0.0000       3.260938        88.7346 
 154   0.0000       3.454304        93.9964 
 155   0.0000       3.493632        95.0666 
 156   0.0000       3.516286        95.6830 
 157   0.0000       3.539146        96.3051 
 158   0.0000       3.566797        97.0575 
 159   0.0000       3.571144        97.1758 
 160   0.0000       3.621888        98.5566 
 161   0.0000       3.856525       104.9414 
 162   0.0000       3.868782       105.2749 
 163   0.0000       3.880335       105.5893 
 164   0.0000       3.884149       105.6931 
 165   0.0000       3.892638       105.9241 
 166   0.0000       3.900546       106.1393 
 167   0.0000       3.909355       106.3790 

                    ********************************
                    * MULLIKEN POPULATION ANALYSIS *
                    ********************************

-----------------------
MULLIKEN ATOMIC CHARGES
-----------------------
   0 O :   -0.353623
   1 H :    0.188290
   2 H :    0.224710
   3 O :   -0.386122
   4 H :    0.179306
   5 H :    0.209591
   6 O :   -0.369841
   7 H :    0.209547
   8 H :    0.169693
   9 O :   -0.400967
  10 H :    0.151998
  11 H :    0.171556
  12 O :   -0.347295
  13 H :    0.223697
  14 H :    0.186847
  15 O :   -0.379145
  16 H :    0.181950
  17 H :    0.210907
  18 O :   -0.397755
  19 H :    0.167038
  20 H :    0.159617
Sum of atomic charges:   -0.0000000

--------------------------------
MULLIKEN REDUCED ORBITAL CHARGES
--------------------------------
  0 O s       :     3.676172  s :     3.676172
      pz      :     1.641849  p :     4.670403
      px      :     1.423275
      py      :     1.605279
      dz2     :     0.001120  d :     0.007049
      dxz     :     0.000726
      dyz     :     0.001638
      dx2y2   :     0.002525
      dxy     :     0.001040
  1 H s       :     0.734471  s :     0.734471
      pz      :     0.031209  p :     0.077239
      px      :     0.012456
      py      :     0.033574
  2 H s       :     0.705539  s :     0.705539
      pz      :     0.017462  p :     0.069751
      px      :     0.033521
      py      :     0.018768
  3 O s       :     3.678500  s :     3.678500
      pz      :     1.692288  p :     4.699543
      px      :     1.747295
      py      :     1.259960
      dz2     :     0.000811  d :     0.008079
      dxz     :     0.001471
      dyz     :     0.004078
      dx2y2   :     0.000779
      dxy     :     0.000941
  4 H s       :     0.744516  s :     0.744516
      pz      :     0.026085  p :     0.076178
      px      :     0.019442
      py      :     0.030652
  5 H s       :     0.720732  s :     0.720732
      pz      :     0.019243  p :     0.069677
      px      :     0.017008
      py      :     0.033425
  6 O s       :     3.678660  s :     3.678660
      pz      :     1.494954  p :     4.682553
      px      :     1.321677
      py      :     1.865922
      dz2     :     0.004398  d :     0.008627
      dxz     :     0.000825
      dyz     :     0.000609
      dx2y2   :     0.002457
      dxy     :     0.000338
  7 H s       :     0.720168  s :     0.720168
      pz      :     0.015015  p :     0.070285
      px      :     0.037498
      py      :     0.017772
  8 H s       :     0.756421  s :     0.756421
      pz      :     0.040862  p :     0.073887
      px      :     0.016842
      py      :     0.016183
  9 O s       :     3.676015  s :     3.676015
      pz      :     1.484920  p :     4.716822
      px      :     1.770423
      py      :     1.461479
      dz2     :     0.001671  d :     0.008131
      dxz     :     0.002652
      dyz     :     0.000172
      dx2y2   :     0.001328
      dxy     :     0.002308
 10 H s       :     0.773490  s :     0.773490
      pz      :     0.035251  p :     0.074512
      px      :     0.023085
      py      :     0.016176
 11 H s       :     0.756183  s :     0.756183
      pz      :     0.017434  p :     0.072261
      px      :     0.020043
      py      :     0.034784
 12 O s       :     3.675544  s :     3.675544
      pz      :     1.616687  p :     4.664449
      px      :     1.544212
      py      :     1.503550
      dz2     :     0.001291  d :     0.007303
      dxz     :     0.000858
      dyz     :     0.001701
      dx2y2   :     0.001258
      dxy     :     0.002195
 13 H s       :     0.706120  s :     0.706120
      pz      :     0.027020  p :     0.070183
      px      :     0.015499
      py      :     0.027664
 14 H s       :     0.738347  s :     0.738347
      pz      :     0.015274  p :     0.074806
      px      :     0.033205
      py      :     0.026327
 15 O s       :     3.677198  s :     3.677198
      pz      :     1.738215  p :     4.693792
      px      :     1.436626
      py      :     1.518951
      dz2     :     0.001072  d :     0.008154
      dxz     :     0.000231
      dyz     :     0.002639
      dx2y2   :     0.003091
      dxy     :     0.001121
 16 H s       :     0.741691  s :     0.741691
      pz      :     0.015214  p :     0.076359
      px      :     0.047352
      py      :     0.013792
 17 H s       :     0.719436  s :     0.719436
      pz      :     0.023594  p :     0.069657
      px      :     0.017840
      py      :     0.028223
 18 O s       :     3.676395  s :     3.676395
      pz      :     1.713766  p :     4.713002
      px      :     1.488414
      py      :     1.510822
      dz2     :     0.000987  d :     0.008358
      dxz     :     0.001685
      dyz     :     0.001060
      dx2y2   :     0.003354
      dxy     :     0.001272
 19 H s       :     0.759969  s :     0.759969
      pz      :     0.025627  p :     0.072994
      px      :     0.032589
      py      :     0.014778
 20 H s       :     0.766516  s :     0.766516
      pz      :     0.016884  p :     0.073867
      px      :     0.017998
      py      :     0.038985


                     *******************************
                     * LOEWDIN POPULATION ANALYSIS *
                     *******************************

----------------------
LOEWDIN ATOMIC CHARGES
----------------------
   0 O :   -0.077152
   1 H :    0.041751
   2 H :    0.109752
   3 O :   -0.135594
   4 H :    0.038132
   5 H :    0.100424
   6 O :   -0.143411
   7 H :    0.100549
   8 H :    0.041881
   9 O :   -0.146935
  10 H :    0.032977
  11 H :    0.043771
  12 O :   -0.088096
  13 H :    0.111474
  14 H :    0.046685
  15 O :   -0.126358
  16 H :    0.038668
  17 H :    0.101653
  18 O :   -0.166482
  19 H :    0.039199
  20 H :    0.037112

-------------------------------
LOEWDIN REDUCED ORBITAL CHARGES
-------------------------------
  0 O s       :     3.405869  s :     3.405869
      pz      :     1.617080  p :     4.656636
      px      :     1.461333
      py      :     1.578222
      dz2     :     0.002145  d :     0.014648
      dxz     :     0.001099
      dyz     :     0.004186
      dx2y2   :     0.005048
      dxy     :     0.002171
  1 H s       :     0.722489  s :     0.722489
      pz      :     0.100174  p :     0.235761
      px      :     0.029840
      py      :     0.105746
  2 H s       :     0.709659  s :     0.709659
      pz      :     0.044020  p :     0.180589
      px      :     0.090279
      py      :     0.046290
  3 O s       :     3.420389  s :     3.420389
      pz      :     1.695092  p :     4.699639
      px      :     1.702003
      py      :     1.302544
      dz2     :     0.000520  d :     0.015566
      dxz     :     0.001798
      dyz     :     0.008148
      dx2y2   :     0.002903
      dxy     :     0.002197
  4 H s       :     0.733374  s :     0.733374
      pz      :     0.084442  p :     0.228494
      px      :     0.063173
      py      :     0.080878
  5 H s       :     0.718706  s :     0.718706
      pz      :     0.055480  p :     0.180870
      px      :     0.049706
      py      :     0.075685
  6 O s       :     3.423489  s :     3.423489
      pz      :     1.525492  p :     4.703689
      px      :     1.377531
      py      :     1.800667
      dz2     :     0.008515  d :     0.016233
      dxz     :     0.001294
      dyz     :     0.000360
      dx2y2   :     0.005761
      dxy     :     0.000303
  7 H s       :     0.719088  s :     0.719088
      pz      :     0.035976  p :     0.180364
      px      :     0.092942
      py      :     0.051445
  8 H s       :     0.745125  s :     0.745125
      pz      :     0.127694  p :     0.212994
      px      :     0.035810
      py      :     0.049490
  9 O s       :     3.420248  s :     3.420248
      pz      :     1.489986  p :     4.711323
      px      :     1.746541
      py      :     1.474796
      dz2     :     0.003483  d :     0.015364
      dxz     :     0.004739
      dyz     :     0.001135
      dx2y2   :     0.002206
      dxy     :     0.003801
 10 H s       :     0.749499  s :     0.749499
      pz      :     0.108789  p :     0.217524
      px      :     0.072296
      py      :     0.036438
 11 H s       :     0.750555  s :     0.750555
      pz      :     0.040174  p :     0.205674
      px      :     0.061901
      py      :     0.103599
 12 O s       :     3.405125  s :     3.405125
      pz      :     1.603385  p :     4.668000
      px      :     1.566152
      py      :     1.498463
      dz2     :     0.002409  d :     0.014972
      dxz     :     0.001005
      dyz     :     0.004729
      dx2y2   :     0.002040
      dxy     :     0.004789
 13 H s       :     0.708878  s :     0.708878
      pz      :     0.072425  p :     0.179648
      px      :     0.040711
      py      :     0.066513
 14 H s       :     0.730281  s :     0.730281
      pz      :     0.040157  p :     0.223034
      px      :     0.109402
      py      :     0.073475
 15 O s       :     3.419677  s :     3.419677
      pz      :     1.703518  p :     4.691067
      px      :     1.448485
      py      :     1.539064
      dz2     :     0.001568  d :     0.015615
      dxz     :     0.000518
      dyz     :     0.005243
      dx2y2   :     0.006446
      dxy     :     0.001839
 16 H s       :     0.731833  s :     0.731833
      pz      :     0.042912  p :     0.229499
      px      :     0.149938
      py      :     0.036649
 17 H s       :     0.717518  s :     0.717518
      pz      :     0.064052  p :     0.180829
      px      :     0.038638
      py      :     0.078140
 18 O s       :     3.428177  s :     3.428177
      pz      :     1.675628  p :     4.722818
      px      :     1.501591
      py      :     1.545599
      dz2     :     0.001478  d :     0.015487
      dxz     :     0.004229
      dyz     :     0.001413
      dx2y2   :     0.006421
      dxy     :     0.001947
 19 H s       :     0.751095  s :     0.751095
      pz      :     0.073758  p :     0.209706
      px      :     0.097321
      py      :     0.038627
 20 H s       :     0.750226  s :     0.750226
      pz      :     0.047666  p :     0.212662
      px      :     0.041997
      py      :     0.122998


                      *****************************
                      * MAYER POPULATION ANALYSIS *
                      *****************************

  NA   - Mulliken gross atomic population
  ZA   - Total nuclear charge
  QA   - Mulliken gross atomic charge
  VA   - Mayer's total valence
  BVA  - Mayer's bonded valence
  FA   - Mayer's free valence

  ATOM       NA         ZA         QA         VA         BVA        FA
  0 O      8.3536     8.0000    -0.3536     2.1651     2.1651     0.0000
  1 H      0.8117     1.0000     0.1883     1.0855     1.0855    -0.0000
  2 H      0.7753     1.0000     0.2247     0.9775     0.9775    -0.0000
  3 O      8.3861     8.0000    -0.3861     2.0849     2.0849     0.0000
  4 H      0.8207     1.0000     0.1793     1.0918     1.0918     0.0000
  5 H      0.7904     1.0000     0.2096     0.9846     0.9846    -0.0000
  6 O      8.3698     8.0000    -0.3698     2.0977     2.0977     0.0000
  7 H      0.7905     1.0000     0.2095     0.9874     0.9874    -0.0000
  8 H      0.8303     1.0000     0.1697     1.0939     1.0939    -0.0000
  9 O      8.4010     8.0000    -0.4010     2.0735     2.0735     0.0000
 10 H      0.8480     1.0000     0.1520     1.1180     1.1180    -0.0000
 11 H      0.8284     1.0000     0.1716     1.0851     1.0851    -0.0000
 12 O      8.3473     8.0000    -0.3473     2.1654     2.1654    -0.0000
 13 H      0.7763     1.0000     0.2237     0.9808     0.9808    -0.0000
 14 H      0.8132     1.0000     0.1868     1.0783     1.0783     0.0000
 15 O      8.3791     8.0000    -0.3791     2.0977     2.0977     0.0000
 16 H      0.8180     1.0000     0.1820     1.0892     1.0892     0.0000
 17 H      0.7891     1.0000     0.2109     0.9856     0.9856     0.0000
 18 O      8.3978     8.0000    -0.3978     2.0780     2.0780    -0.0000
 19 H      0.8330     1.0000     0.1670     1.0896     1.0896    -0.0000
 20 H      0.8404     1.0000     0.1596     1.1001     1.1001     0.0000

  Mayer bond orders larger than 0.100000
B(  0-O ,  1-H ) :   0.8368 B(  0-O ,  2-H ) :   0.9611 B(  0-O , 14-H ) :   0.1845 
B(  0-O , 19-H ) :   0.1565 B(  1-H , 15-O ) :   0.2327 B(  3-O ,  4-H ) :   0.8696 
B(  3-O ,  5-H ) :   0.9730 B(  3-O , 16-H ) :   0.2128 B(  4-H ,  9-O ) :   0.2129 
B(  6-O ,  7-H ) :   0.9744 B(  6-O ,  8-H ) :   0.9068 B(  6-O , 20-H ) :   0.1877 
B(  8-H , 12-O ) :   0.1682 B(  9-O , 10-H ) :   0.8896 B(  9-O , 11-H ) :   0.9193 
B( 10-H , 18-O ) :   0.2115 B( 11-H , 12-O ) :   0.1505 B( 12-O , 13-H ) :   0.9612 
B( 12-O , 14-H ) :   0.8645 B( 15-O , 16-H ) :   0.8677 B( 15-O , 17-H ) :   0.9723 
B( 18-O , 19-H ) :   0.9179 B( 18-O , 20-H ) :   0.9061 

-------
TIMINGS
-------

Total SCF time: 0 days 0 hours 0 min 10 sec 

Total time                  ....      10.690 sec
Sum of individual times     ....      10.274 sec  ( 96.1%)

Fock matrix formation       ....       9.457 sec  ( 88.5%)
  XC integration            ....       0.820 sec  (  8.7% of F)
    Basis function eval.    ....       0.343 sec  ( 41.9% of XC)
    Density eval.           ....       0.148 sec  ( 18.1% of XC)
    XC-Functional eval.     ....       0.072 sec  (  8.8% of XC)
    XC-Potential eval.      ....       0.180 sec  ( 21.9% of XC)
Diagonalization             ....       0.022 sec  (  0.2%)
Density matrix formation    ....       0.004 sec  (  0.0%)
Population analysis         ....       0.008 sec  (  0.1%)
Initial guess               ....       0.173 sec  (  1.6%)
Orbital Transformation      ....       0.000 sec  (  0.0%)
Orbital Orthonormalization  ....       0.000 sec  (  0.0%)
DIIS solution               ....       0.007 sec  (  0.1%)
SOSCF solution              ....       0.010 sec  (  0.1%)
Grid generation             ....       0.593 sec  (  5.5%)


-------------------------------------------------------------------------------
                          DFT DISPERSION CORRECTION                            
                                                                               
                              DFTD3 V3.1  Rev 1                                
                          USING Becke-Johnson damping                          
-------------------------------------------------------------------------------
The PBE0 functional is recognized
Active option DFTDOPT                   ...         4   

molecular C6(AA) [au] = 2180.231911 


            DFT-D V3
 parameters
 s6 scaling factor         :     1.0000 
 a1 scaling factor         :     0.4145 
 s8 scaling factor         :     1.2177 
 a2 scaling factor         :     4.8593 
 ad hoc parameters k1-k3   :    16.0000     1.3333    -4.0000 

 Edisp/kcal,au: -6.775640853302  -0.010797669853 
 E6   /kcal   :  -4.697200980 
 E8   /kcal   :  -2.078439873 
 % E8         :  30.675177716 

-------------------------   ----------------
Dispersion correction           -0.010797670
-------------------------   ----------------


-------------------------   --------------------
FINAL SINGLE POINT ENERGY      -534.126643518245
-------------------------   --------------------

[1615912907.887637] [comp0807:121871:0]            sys.c:618  UCX  ERROR shmget(size=2097152 flags=0xfb0) for mm_recv_desc failed: Operation not permitted, please check shared memory limits by 'ipcs -l'
[1615912907.900066] [comp0807:121873:0]            sys.c:618  UCX  ERROR shmget(size=2097152 flags=0xfb0) for mm_recv_desc failed: Operation not permitted, please check shared memory limits by 'ipcs -l'
[1615912907.935158] [comp0807:121872:0]            sys.c:618  UCX  ERROR shmget(size=2097152 flags=0xfb0) for mm_recv_desc failed: Operation not permitted, please check shared memory limits by 'ipcs -l'
[1615912907.935734] [comp0807:121874:0]            sys.c:618  UCX  ERROR shmget(size=2097152 flags=0xfb0) for mm_recv_desc failed: Operation not permitted, please check shared memory limits by 'ipcs -l'
[...]
     24       0.194436   0.205981   0.005147  -0.055307  -0.000034   0.004184
     25      -0.089126  -0.097644  -0.004961   0.022990   0.000032   0.006624
     26       0.612788   0.642434   0.017217  -0.173943  -0.000051  -0.070734
     27       0.013813  -0.001063   0.006259   0.022615   0.000093   0.000148
     28      -0.001688  -0.010009   0.000713  -0.052326  -0.000203  -0.000268
     29      -0.016689   0.010216  -0.008892   0.017530  -0.000087   0.000032
     30      -0.174394   0.074237  -0.090791   0.008881  -0.000886  -0.000537
     31      -0.090639   0.027711  -0.040965  -0.026613  -0.000498   0.000274
     32       0.312551  -0.119542   0.156218   0.016201   0.001904   0.000637
     33      -0.039062  -0.051611  -0.010971  -0.363478  -0.001157  -0.002332
     34       0.115865   0.124958   0.032144   0.849431   0.002630   0.004403
     35      -0.050405  -0.041780  -0.013237  -0.285715  -0.001072  -0.000658
     36       0.009287   0.003041  -0.005851  -0.005342  -0.000019   0.000248
     37       0.006416   0.002989  -0.003328  -0.004427  -0.000012  -0.003452
     38      -0.000476  -0.000477   0.000245   0.002196  -0.000009   0.002937
     39       0.005672   0.004447   0.000345  -0.013995   0.000077  -0.014248
     40       0.005958  -0.002778  -0.010999   0.019167  -0.000220   0.049174
     41       0.004504   0.011306   0.009887  -0.017720   0.000210  -0.050348
     42      -0.153835  -0.057290   0.095422   0.092864   0.000371   0.009506
     43      -0.103538  -0.037643   0.066996   0.062465   0.000178   0.005130
     44       0.020953   0.006736  -0.014644  -0.014070  -0.000036  -0.000154
     45      -0.000751  -0.000016   0.000164  -0.000163  -0.020139   0.000299
     46       0.000098   0.000020   0.000198   0.000063  -0.043459   0.000548
     47       0.000047   0.000030   0.000197   0.000042   0.031319  -0.000410
     48       0.012584   0.000385  -0.002801   0.002723   0.023430  -0.000961
     49      -0.002093  -0.000248  -0.000148  -0.000899  -0.021577   0.000384
     50      -0.002069  -0.000263   0.000190  -0.000790   0.007006  -0.000030
     51      -0.000556  -0.000002   0.000230  -0.000126   0.290742  -0.003672
     52      -0.000421   0.000007  -0.000060  -0.000216   0.712820  -0.009030
     53       0.000529  -0.000056  -0.000408   0.000119  -0.503897   0.006375
     54       0.014494  -0.013828  -0.049766   0.002919  -0.000034  -0.000624
     55       0.034041  -0.039078   0.007977   0.000007   0.000003  -0.001280
     56       0.013670  -0.013272  -0.032297   0.001065  -0.000034  -0.000478
     57      -0.048383   0.010583   0.805987  -0.040984   0.000527   0.003435
     58       0.025544  -0.020956  -0.125045   0.006471  -0.000094  -0.000868
     59      -0.032033   0.007509   0.520129  -0.023860   0.000270   0.002056
     60      -0.173946   0.202632  -0.023444  -0.001501  -0.000008   0.007241
     61      -0.551378   0.634154  -0.003265  -0.004733   0.000075   0.021955
     62      -0.181772   0.199512  -0.018503   0.001244   0.000052   0.004695
                  60         61         62    
      0       0.002551  -0.053787   0.015493
      1      -0.000678   0.021153  -0.005550
      2      -0.000410   0.015037  -0.004186
      3       0.001228  -0.021880   0.005849
      4      -0.004710  -0.019604   0.001523
      5      -0.003756  -0.021978   0.002184
      6      -0.041384   0.878103  -0.249079
      7       0.014818  -0.310727   0.088692
      8       0.010188  -0.212882   0.060594
      9       0.008910   0.000213  -0.000055
     10      -0.051898  -0.000909   0.000180
     11       0.022844   0.000389  -0.000083
     12       0.018541   0.000107   0.000133
     13       0.005387   0.000019   0.000068
     14       0.032378   0.000559  -0.000010
     15      -0.160866  -0.002870   0.000576
     16       0.815369   0.014291  -0.002834
     17      -0.398486  -0.006958   0.001373
     18       0.002014  -0.001770  -0.004573
     19      -0.000196   0.000210   0.000587
     20       0.000107  -0.000484  -0.001731
     21      -0.032097   0.026047   0.064608
     22       0.002836  -0.002331  -0.005703
     23       0.000981  -0.001020  -0.002734
     24       0.000122   0.002199   0.008490
     25       0.000123  -0.001140  -0.003689
     26      -0.002454   0.008600   0.030068
     27      -0.000190  -0.000208  -0.000731
     28       0.000577   0.000493   0.001671
     29       0.000286  -0.000148  -0.000592
     30       0.002132  -0.000130  -0.000728
     31       0.001283   0.000160   0.000122
     32      -0.005370  -0.000229   0.001040
     33       0.002890   0.003689   0.012910
     34      -0.007172  -0.008017  -0.026566
     35       0.002896   0.002622   0.008505
     36      -0.000045   0.003336   0.007452
     37      -0.000016  -0.011472  -0.043336
     38       0.000014   0.011596   0.041344
     39      -0.000135  -0.050874  -0.180214
     40       0.000313   0.189160   0.663550
     41      -0.000299  -0.188667  -0.662592
     42       0.000748  -0.004174   0.057719
     43       0.000189  -0.008324   0.020700
     44      -0.000040   0.004936   0.007851
     45      -0.009392  -0.001466   0.000388
     46      -0.017567  -0.003881   0.001089
     47       0.012948   0.002313  -0.000589
     48       0.029315  -0.001783   0.000690
     49      -0.011786  -0.001442   0.000291
     50       0.001342   0.001409  -0.000473
     51       0.118434   0.024409  -0.006640
     52       0.291018   0.059148  -0.016118
     53      -0.205595  -0.041583   0.011282
     54      -0.000079   0.001445  -0.000688
     55      -0.000020  -0.000084   0.000107
     56      -0.000009   0.001000  -0.000482
     57       0.001094  -0.023533   0.011419
     58      -0.000167   0.003878  -0.002189
     59       0.000369  -0.015847   0.008080
     60       0.000132  -0.000223  -0.000082
     61       0.000340  -0.002511   0.000392
     62      -0.000081  -0.000416   0.000244


-----------
IR SPECTRUM
-----------

 Mode    freq (cm**-1)   T**2         TX         TY         TZ
-------------------------------------------------------------------
   7:        20.62   16.910393  ( -1.240730  -2.527492  -2.997126)
   8:        26.91   17.841352  (  0.230527   2.556916   3.354160)
   9:        65.60    0.491821  ( -0.332122  -0.515560  -0.340166)
  10:        75.76    3.001748  ( -1.194537   0.835304   0.936534)
  11:       104.18    0.544560  (  0.477176   0.428199  -0.365389)
  12:       163.30   52.928126  (  4.209002  -3.693866  -4.644113)
  13:       203.80   73.700909  (  0.778017   8.547813   0.174625)
  14:       215.65   18.149798  ( -1.386790   2.612625   3.066072)
  15:       225.16    7.841967  (  1.354891   1.640510   1.820705)
  16:       231.13  157.751825  (  3.543752   7.807577   9.177984)
  17:       249.07   49.990249  (  0.389079  -1.191433  -6.958402)
  18:       253.43   30.843218  (  1.150569  -5.417866  -0.407605)
  19:       266.83   68.130466  ( -0.454091  -5.435576   6.195061)
  20:       281.99   50.401241  ( -6.873933  -1.731609   0.389630)
  21:       289.11  161.274551  ( -9.454866   4.511363   7.178277)
  22:       315.98   35.707592  ( -1.674628   0.018773  -5.736101)
  23:       327.80   89.751562  ( -3.385488  -6.564178  -5.933094)
  24:       329.92  221.433012  ( -5.917089 -13.315835  -3.018211)
  25:       349.03    5.143075  ( -0.901235   1.872386   0.908307)
  26:       365.20   98.079556  (  2.632674  -7.076444   6.408784)
  27:       438.87   24.306621  (  0.241245   3.831347   3.093412)
  28:       451.05  120.914865  ( -5.796743  -0.342494   9.337844)
  29:       496.18  207.559954  (  6.101510  12.818360   2.453811)
  30:       552.97  222.358402  (-13.545681   0.894086   6.170376)
  31:       606.30   15.095452  ( -2.159002   2.464964  -2.087610)
  32:       643.00   56.494240  (  1.979348  -4.428573   5.741443)
  33:       667.90    7.209577  (  0.338625  -2.154731  -1.565900)
  34:       725.87   56.672731  (  6.194329  -1.545414   3.989325)
  35:       785.78  257.864271  ( -1.408184 -15.230704   4.889472)
  36:       815.16  349.380268  (-12.953468 -11.371827   7.229763)
  37:       859.06  131.394540  ( -6.695705   7.015462   6.111085)
  38:       900.34  793.029080  (  1.445459  11.084034  25.847319)
  39:       949.08   58.979906  (  7.271468   2.425527   0.471668)
  40:       989.01   58.286570  (  3.371945   4.055814  -5.519686)
  41:      1045.79  108.547232  (-10.269480  -1.347441   1.126684)
  42:      1586.54  179.894374  ( 11.739268  -5.897833   2.701763)
  43:      1626.84   64.962927  (  5.876649   1.226590   5.378048)
  44:      1643.63  115.961169  ( -4.525066  -2.575333   9.426166)
  45:      1656.34  154.902199  ( -4.217537   8.872400  -7.641669)
  46:      1661.91   41.935163  (  1.816165   4.669929   4.102252)
  47:      1698.54   33.171065  (  1.218655  -3.489681   4.416794)
  48:      1718.81  237.306505  (-11.459441   9.629632   3.641142)
  49:      3054.10  1340.752765  (  7.907070 -28.592210 -21.464308)
  50:      3176.34  2954.297480  (-31.141165 -34.049838 -28.725144)
  51:      3265.30  1366.039104  (-28.974529  14.348304  17.906479)
  52:      3309.13  498.368602  (-18.671525 -11.860045   3.013651)
  53:      3376.95  483.863736  (-17.571908  -0.858237  13.204364)
  54:      3458.19  1142.068123  (-14.313375 -20.462656  22.770049)
  55:      3509.63  876.410145  ( 12.378173  18.554292  19.466105)
  56:      3549.37  791.522865  ( 21.742449  -4.714854  17.220886)
  57:      3591.27  832.723765  (-11.837269  22.829261 -13.093039)
  58:      3864.41   45.330479  (  4.527727   3.219171  -3.803565)
  59:      3866.82  116.619443  (-10.241095   1.450143  -3.104270)
  60:      3867.54  168.937290  (  0.523670  12.168202  -4.538493)
  61:      3876.69  148.205348  ( 10.058185  -2.028596  -6.551570)
  62:      3880.83  140.271739  ( -1.606906   9.967457  -6.191881)

The first frequency considered to be a vibration is 7
The total number of vibrations considered is 56


--------------------------
THERMOCHEMISTRY AT 298.15K
--------------------------

Temperature         ... 298.15 K
Pressure            ... 1.00 atm
Total Mass          ... 126.10 AMU

Throughout the following assumptions are being made:
  (1) The electronic state is orbitally nondegenerate
  (2) There are no thermally accessible electronically excited states
  (3) Hindered rotations indicated by low frequency modes are not
      treated as such but are treated as vibrations and this may
      cause some error
  (4) All equations used are the standard statistical mechanics
      equations for an ideal gas
  (5) All vibrations are strictly harmonic

freq.      20.62  E(vib)   ...       0.56 
freq.      26.91  E(vib)   ...       0.55 
freq.      65.60  E(vib)   ...       0.50 
freq.      75.76  E(vib)   ...       0.49 
freq.     104.18  E(vib)   ...       0.46 
freq.     163.30  E(vib)   ...       0.39 
freq.     203.80  E(vib)   ...       0.35 
freq.     215.65  E(vib)   ...       0.34 
freq.     225.16  E(vib)   ...       0.33 
freq.     231.13  E(vib)   ...       0.32 
freq.     249.07  E(vib)   ...       0.31 
freq.     253.43  E(vib)   ...       0.30 
freq.     266.83  E(vib)   ...       0.29 
freq.     281.99  E(vib)   ...       0.28 
freq.     289.11  E(vib)   ...       0.27 
freq.     315.98  E(vib)   ...       0.25 
freq.     327.80  E(vib)   ...       0.24 
freq.     329.92  E(vib)   ...       0.24 
freq.     349.03  E(vib)   ...       0.23 
freq.     365.20  E(vib)   ...       0.22 
freq.     438.87  E(vib)   ...       0.17 
freq.     451.05  E(vib)   ...       0.16 
freq.     496.18  E(vib)   ...       0.14 
freq.     552.97  E(vib)   ...       0.12 
freq.     606.30  E(vib)   ...       0.10 
freq.     643.00  E(vib)   ...       0.09 
freq.     667.90  E(vib)   ...       0.08 
freq.     725.87  E(vib)   ...       0.06 
freq.     785.78  E(vib)   ...       0.05 
freq.     815.16  E(vib)   ...       0.05 
freq.     859.06  E(vib)   ...       0.04 
freq.     900.34  E(vib)   ...       0.03 
freq.     949.08  E(vib)   ...       0.03 
freq.     989.01  E(vib)   ...       0.02 
freq.    1045.79  E(vib)   ...       0.02 
freq.    1586.54  E(vib)   ...       0.00 
freq.    1626.84  E(vib)   ...       0.00 
freq.    1643.63  E(vib)   ...       0.00 
freq.    1656.34  E(vib)   ...       0.00 
freq.    1661.91  E(vib)   ...       0.00 
freq.    1698.54  E(vib)   ...       0.00 
freq.    1718.81  E(vib)   ...       0.00 
freq.    3054.10  E(vib)   ...       0.00 
freq.    3176.34  E(vib)   ...       0.00 
freq.    3265.30  E(vib)   ...       0.00 
freq.    3309.13  E(vib)   ...       0.00 
freq.    3376.95  E(vib)   ...       0.00 
freq.    3458.19  E(vib)   ...       0.00 
freq.    3509.63  E(vib)   ...       0.00 
freq.    3549.37  E(vib)   ...       0.00 
freq.    3591.27  E(vib)   ...       0.00 
freq.    3864.41  E(vib)   ...       0.00 
freq.    3866.82  E(vib)   ...       0.00 
freq.    3867.54  E(vib)   ...       0.00 
freq.    3876.69  E(vib)   ...       0.00 
freq.    3880.83  E(vib)   ...       0.00 

------------
INNER ENERGY
------------

The inner energy is: U= E(el) + E(ZPE) + E(vib) + E(rot) + E(trans)
    E(el)   - is the total energy from the electronic structure calculation
              = E(kin-el) + E(nuc-el) + E(el-el) + E(nuc-nuc)
    E(ZPE)  - the the zero temperature vibrational energy from the frequency calculation
    E(vib)  - the the finite temperature correction to E(ZPE) due to population
              of excited vibrational states
    E(rot)  - is the rotational thermal energy
    E(trans)- is the translational thermal energy

Summary of contributions to the inner energy U:
Electronic energy                ...   -534.12664502 Eh
Zero point energy                ...      0.17433911 Eh     109.40 kcal/mol
Thermal vibrational correction   ...      0.01291027 Eh       8.10 kcal/mol
Thermal rotational correction    ...      0.00141627 Eh       0.89 kcal/mol
Thermal translational correction ...      0.00141627 Eh       0.89 kcal/mol
-----------------------------------------------------------------------
Total thermal energy                   -533.93656309 Eh


Summary of corrections to the electronic energy:
(perhaps to be used in another calculation)
Total thermal correction                  0.01574281 Eh       9.88 kcal/mol
Non-thermal (ZPE) correction              0.17433911 Eh     109.40 kcal/mol
-----------------------------------------------------------------------
Total correction                          0.19008192 Eh     119.28 kcal/mol


--------
ENTHALPY
--------

The enthalpy is H = U + kB*T
                kB is Boltzmann's constant
Total free energy                 ...   -533.93656309 Eh 
Thermal Enthalpy correction       ...      0.00094421 Eh       0.59 kcal/mol
-----------------------------------------------------------------------
Total Enthalpy                    ...   -533.93561889 Eh


Note: Only C1 symmetry has been detected, increase convergence thresholds 
      if your molecule has a higher symmetry. Symmetry factor of 1.0 is   
      used for the rotational entropy correction. 
 

Note: Rotational entropy computed according to Herzberg 
Infrared and Raman Spectra, Chapter V,1, Van Nostrand Reinhold, 1945 
Point Group:  C1, Symmetry Number:   1  
Rotational constants in cm-1:     0.058479     0.029030     0.025824 

Vibrational entropy computed according to the QRRHO of S. Grimme
Chem.Eur.J. 2012 18 9955


-------
ENTROPY
-------

The entropy contributions are T*S = T*(S(el)+S(vib)+S(rot)+S(trans))
     S(el)   - electronic entropy
     S(vib)  - vibrational entropy
     S(rot)  - rotational entropy
     S(trans)- translational entropy
The entropies will be listed as mutliplied by the temperature to get
units of energy

Electronic entropy                ...      0.00000000 Eh      0.00 kcal/mol
Vibrational entropy               ...      0.02301988 Eh     14.45 kcal/mol
Rotational entropy                ...      0.01424821 Eh      8.94 kcal/mol
Translational entropy             ...      0.01919974 Eh     12.05 kcal/mol
-----------------------------------------------------------------------
Final entropy term                ...      0.05646783 Eh     35.43 kcal/mol

In case the symmetry of your molecule has not been determined correctly
or in case you have a reason to use a different symmetry number we print 
out the resulting rotational entropy values for sn=1,12 :
 --------------------------------------------------------
|  sn= 1 | S(rot)=       0.01424821 Eh      8.94 kcal/mol|
|  sn= 2 | S(rot)=       0.01359375 Eh      8.53 kcal/mol|
|  sn= 3 | S(rot)=       0.01321092 Eh      8.29 kcal/mol|
|  sn= 4 | S(rot)=       0.01293929 Eh      8.12 kcal/mol|
|  sn= 5 | S(rot)=       0.01272861 Eh      7.99 kcal/mol|
|  sn= 6 | S(rot)=       0.01255646 Eh      7.88 kcal/mol|
|  sn= 7 | S(rot)=       0.01241092 Eh      7.79 kcal/mol|
|  sn= 8 | S(rot)=       0.01228484 Eh      7.71 kcal/mol|
|  sn= 9 | S(rot)=       0.01217363 Eh      7.64 kcal/mol|
|  sn=10 | S(rot)=       0.01207415 Eh      7.58 kcal/mol|
|  sn=11 | S(rot)=       0.01198416 Eh      7.52 kcal/mol|
|  sn=12 | S(rot)=       0.01190200 Eh      7.47 kcal/mol|
 --------------------------------------------------------


-------------------
GIBBS FREE ENERGY
-------------------

The Gibbs free energy is G = H - T*S

Total enthalpy                    ...   -533.93561889 Eh 
Total entropy correction          ...     -0.05646783 Eh    -35.43 kcal/mol
-----------------------------------------------------------------------
Final Gibbs free energy         ...   -533.99208671 Eh

For completeness - the Gibbs free energy minus the electronic energy
G-E(el)                           ...      0.13455830 Eh     84.44 kcal/mol

[1615913167.436684] [comp0807:123058:0]            sys.c:618  UCX  ERROR shmget(size=2097152 flags=0xfb0) for mm_recv_desc failed: Operation not permitted, please check shared memory limits by 'ipcs -l'
[1615913167.441954] [comp0807:123061:0]            sys.c:618  UCX  ERROR shmget(size=2097152 flags=0xfb0) for mm_recv_desc failed: Operation not permitted, please check shared memory limits by 'ipcs -l'
[1615913167.445067] [comp0807:123060:0]            sys.c:618  UCX  ERROR shmget(size=2097152 flags=0xfb0) for mm_recv_desc failed: Operation not permitted, please check shared memory limits by 'ipcs -l'
[1615913167.445688] [comp0807:123059:0]            sys.c:618  UCX  ERROR shmget(size=2097152 flags=0xfb0) for mm_recv_desc failed: Operation not permitted, please check shared memory limits by 'ipcs -l'
[1615913167.524969] [comp0807:123061:0]            sys.c:618  UCX  ERROR shmget(size=2097152 flags=0xb80) for ucp_am_bufs failed: Operation not permitted, please check shared memory limits by 'ipcs -l'
[1615913167.537924] [comp0807:123059:0]            sys.c:618  UCX  ERROR shmget(size=2097152 flags=0xb80) for ucp_am_bufs failed: Operation not permitted, please check shared memory limits by 'ipcs -l'
[1615913167.538373] [comp0807:123060:0]            sys.c:618  UCX  ERROR shmget(size=2097152 flags=0xb80) for ucp_am_bufs failed: Operation not permitted, please check shared memory limits by 'ipcs -l'
[1615913167.550001] [comp0807:123058:0]            sys.c:618  UCX  ERROR shmget(size=2097152 flags=0xb80) for ucp_am_bufs failed: Operation not permitted, please check shared memory limits by 'ipcs -l'

Timings for individual modules:

Sum of individual times         ...      271.444 sec (=   4.524 min)
GTO integral calculation        ...        2.470 sec (=   0.041 min)   0.9 %
SCF iterations                  ...       17.787 sec (=   0.296 min)   6.6 %
SCF Gradient evaluation         ...        4.336 sec (=   0.072 min)   1.6 %
Geometry relaxation             ...        0.419 sec (=   0.007 min)   0.2 %
Analytical frequency calculation...      246.431 sec (=   4.107 min)  90.8 %
                             ****ORCA TERMINATED NORMALLY****
TOTAL RUN TIME: 0 days 0 hours 4 minutes 33 seconds 656 msec
