
                                 *****************
                                 * O   R   C   A *
                                 *****************

           --- An Ab Initio, DFT and Semiempirical electronic structure package ---

                  #######################################################
                  #                        -***-                        #
                  #          Department of theory and spectroscopy      #
                  #               Directorship: Frank Neese             #
                  #        Max Planck Institute fuer Kohlenforschung    #
                  #                Kaiser Wilhelm Platz 1               #
                  #                 D-45470 Muelheim/Ruhr               #
                  #                      Germany                        #
                  #                                                     #
                  #                  All rights reserved                #
                  #                        -***-                        #
                  #######################################################


                         Program Version 4.2.1 -  RELEASE  -


 With contributions from (in alphabetic order):
   Daniel Aravena         : Magnetic Suceptibility
   Michael Atanasov       : Ab Initio Ligand Field Theory (pilot matlab implementation)
   Alexander A. Auer      : GIAO ZORA, VPT2
   Ute Becker             : Parallelization
   Giovanni Bistoni       : ED, misc. LED, open-shell LED, HFLD
   Martin Brehm           : Molecular dynamics
   Dmytro Bykov           : SCF Hessian
   Vijay G. Chilkuri      : MRCI spin determinant printing, contributions to CSF-ICE
   Dipayan Datta          : RHF DLPNO-CCSD density
   Achintya Kumar Dutta   : EOM-CC, STEOM-CC
   Dmitry Ganyushin       : Spin-Orbit,Spin-Spin,Magnetic field MRCI
   Miquel Garcia          : C-PCM Hessian, Gaussian charge scheme
   Yang Guo               : DLPNO-NEVPT2, CIM, IAO-localization
   Andreas Hansen         : Spin unrestricted coupled pair/coupled cluster methods
   Benjamin Helmich-Paris : CASSCF linear response (MC-RPA)
   Lee Huntington         : MR-EOM, pCC
   Robert Izsak           : Overlap fitted RIJCOSX, COSX-SCS-MP3, EOM
   Christian Kollmar      : KDIIS, OOCD, Brueckner-CCSD(T), CCSD density
   Simone Kossmann        : Meta GGA functionals, TD-DFT gradient, OOMP2, MP2 Hessian
   Martin Krupicka        : AUTO-CI
   Lucas Lang             : DCDCAS
   Dagmar Lenk            : GEPOL surface, SMD
   Dimitrios Liakos       : Extrapolation schemes; Compound Job, initial MDCI parallelization
   Dimitrios Manganas     : Further ROCIS development; embedding schemes
   Dimitrios Pantazis     : SARC Basis sets
   Taras Petrenko         : DFT Hessian,TD-DFT gradient, ASA, ECA, R-Raman, ABS, FL, XAS/XES, NRVS
   Peter Pinski           : DLPNO-MP2, DLPNO-MP2 Gradient
   Christoph Reimann      : Effective Core Potentials
   Marius Retegan         : Local ZFS, SOC
   Christoph Riplinger    : Optimizer, TS searches, QM/MM, DLPNO-CCSD(T), (RO)-DLPNO pert. Triples
   Tobias Risthaus        : Range-separated hybrids, TD-DFT gradient, RPA, STAB
   Michael Roemelt        : Original ROCIS implementation
   Masaaki Saitow         : Open-shell DLPNO-CCSD energy and density
   Barbara Sandhoefer     : DKH picture change effects
   Avijit Sen             : IP-ROCIS
   Kantharuban Sivalingam : CASSCF convergence, NEVPT2, FIC-MRCI
   Bernardo de Souza      : ESD, SOC TD-DFT
   Georgi Stoychev        : AutoAux, RI-MP2 NMR
   Willem Van den Heuvel  : Paramagnetic NMR
   Boris Wezisla          : Elementary symmetry handling
   Frank Wennmohs         : Technical directorship


 We gratefully acknowledge several colleagues who have allowed us to
 interface, adapt or use parts of their codes:
   Stefan Grimme, W. Hujo, H. Kruse,             : VdW corrections, initial TS optimization,
                  C. Bannwarth                     DFT functionals, gCP, sTDA/sTD-DF
   Ed Valeev, F. Pavosevic, A. Kumar             : LibInt (2-el integral package), F12 methods
   Garnet Chan, S. Sharma, J. Yang, R. Olivares  : DMRG
   Ulf Ekstrom                                   : XCFun DFT Library
   Mihaly Kallay                                 : mrcc  (arbitrary order and MRCC methods)
   Andreas Klamt, Michael Diedenhofen            : otool_cosmo (COSMO solvation model)
   Jiri Pittner, Ondrej Demel                    : Mk-CCSD
   Frank Weinhold                                : gennbo (NPA and NBO analysis)
   Christopher J. Cramer and Donald G. Truhlar   : smd solvation model
   Lars Goerigk                                  : TD-DFT with DH, B97 family of functionals
   V. Asgeirsson, H. Jonsson                     : NEB implementation
   FAccTs GmbH                                   : IRC, NEB, NEB-TS, Multilevel, MM, QM/MM, CI optimization
   S Lehtola, MJT Oliveira, MAL Marques          : LibXC Library


 Your calculation uses the libint2 library for the computation of 2-el integrals
 For citations please refer to: http://libint.valeyev.net

 Your ORCA version has been built with support for libXC version: 4.2.3
 For citations please refer to: https://tddft.org/programs/libxc/

 This ORCA versions uses:
   CBLAS   interface :  Fast vector & matrix operations
   LAPACKE interface :  Fast linear algebra routines
   SCALAPACK package :  Parallel linear algebra routines




***************************************
The coordinates will be read from file: septamer4.xyz
***************************************


Your calculation utilizes the atom-pairwise dispersion correction
with the Becke-Johnson damping scheme (D3BJ)
Cite in your paper:
S.Grimme, S.Ehrlich, L.Goerigk, J Comput Chem, (2011), 32, 1456–1465 
S.Grimme, J.Antony, S.Ehrlich and H.Krieg, J.Chem.Phys., 132, (2010), 154104 
   

Your calculation utilizes the SMD solvation module
Please cite in your paper:
A.V. Marenich, C.J. Cramer, D.G. Truhlar J. Phys. Chem. B, 113, (2009), 6378 

----- Orbital basis set information -----
Your calculation utilizes the basis: def2-SVP
   F. Weigend and R. Ahlrichs, Phys. Chem. Chem. Phys. 7, 3297 (2005).

================================================================================
                                        WARNINGS
                       Please study these warnings very carefully!
================================================================================


WARNING: Geometry Optimization
  ===> : Switching off AutoStart
         For restart on a previous wavefunction, please use MOREAD

INFO   : the flag for use of LIBINT has been found!

================================================================================
                                       INPUT FILE
================================================================================
NAME = septamer4.inp
|  1> ! PBE0 D3BJ def2-SVP LooseOpt Freq CPCM(water) PAL4
|  2> %geom MaxIter 500 end
|  3> %maxcore 4000
|  4> %cpcm  
|  5>     smd true
|  6>     SMDsolvent "water"
|  7> end
|  8> *xyzfile 0 1 septamer4.xyz
|  9> 
| 10>                          ****END OF INPUT****
================================================================================

                       *****************************
                       * Geometry Optimization Run *
                       *****************************

Geometry optimization settings:
Update method            Update   .... BFGS
Choice of coordinates    CoordSys .... Z-matrix Internals
Initial Hessian          InHess   .... Almoef's Model

Convergence Tolerances:
Energy Change            TolE     ....  3.0000e-05 Eh
Max. Gradient            TolMAXG  ....  2.0000e-03 Eh/bohr
RMS Gradient             TolRMSG  ....  5.0000e-04 Eh/bohr
Max. Displacement        TolMAXD  ....  1.0000e-02 bohr
RMS Displacement         TolRMSD  ....  7.0000e-03 bohr
Strict Convergence                ....  False
------------------------------------------------------------------------------
                        ORCA OPTIMIZATION COORDINATE SETUP
------------------------------------------------------------------------------

The optimization will be done in new redundant internal coordinates
Making redundant internal coordinates   ...  (new redundants) done
Evaluating the initial hessian          ...  (Almloef) done
Evaluating the coordinates              ...  done
Calculating the B-matrix                .... done
Calculating the G-matrix                .... done
Diagonalizing the G-matrix              .... done
Small eigenvalue found = 1.965e-02
The first mode is                       ....  137
The number of degrees of freedom        ....   57

    -----------------------------------------------------------------
                    Redundant Internal Coordinates


    -----------------------------------------------------------------
         Definition                    Initial Value    Approx d2E/dq
    -----------------------------------------------------------------
      1. B(H   1,O   0)                  0.9664         0.507954   
      2. B(H   2,O   0)                  0.9579         0.523900   
      3. B(H   4,O   3)                  0.9745         0.492973   
      4. B(H   5,O   3)                  0.9830         0.477860   
      5. B(H   7,O   6)                  0.9187         0.605091   
      6. B(H   7,O   0)                  2.0328         0.010102   
      7. B(H   7,H   1)                  2.5105         0.000373   
      8. B(H   7,H   2)                  2.3478         0.000679   
      9. B(H   8,O   6)                  0.9477         0.543915   
     10. B(O   9,H   4)                  1.7923         0.024440   
     11. B(H  10,O   9)                  0.9776         0.487411   
     12. B(H  10,H   4)                  2.2314         0.001041   
     13. B(H  11,O   9)                  0.9015         0.644497   
     14. B(H  13,O  12)                  0.9408         0.557873   
     15. B(H  14,O   0)                  1.9645         0.012981   
     16. B(H  14,O  12)                  0.9777         0.487145   
     17. B(H  14,H   2)                  2.5301         0.000348   
     18. B(H  14,H   1)                  2.3518         0.000669   
     19. B(H  16,O   3)                  1.6713         0.038115   
     20. B(H  16,H   5)                  2.0161         0.002296   
     21. B(H  16,O  15)                  1.0271         0.406404   
     22. B(H  17,O  15)                  1.0064         0.438435   
     23. B(H  17,O   6)                  1.8512         0.019684   
     24. B(O  18,H  10)                  2.3149         0.003584   
     25. B(H  19,O  18)                  0.9805         0.482154   
     26. B(H  19,H   7)                  1.7533         0.006030   
     27. B(H  19,O   6)                  1.7995         0.023803   
     28. B(H  20,O  18)                  0.9646         0.511168   
     29. A(H   7,O   0,H  14)          130.1824         0.130392   
     30. A(H   2,O   0,H  14)          115.5642         0.190169   
     31. A(H   2,O   0,H   7)           96.8205         0.184587   
     32. A(H   1,O   0,H   2)          101.6597         0.321003   
     33. A(H   1,O   0,H   7)          108.3440         0.183921   
     34. A(H   1,O   0,H  14)          101.2018         0.189464   
     35. A(H   7,H   1,H  14)           96.3772         0.095564   
     36. A(O   0,H   1,H   7)           50.2258         0.125405   
     37. A(O   0,H   1,H  14)           55.0274         0.130541   
     38. A(H   7,H   2,H  14)           95.9491         0.095479   
     39. A(O   0,H   2,H  14)           44.4639         0.125069   
     40. A(O   0,H   2,H   7)           59.2808         0.130969   
     41. A(H   5,O   3,H  16)           95.3280         0.215440   
     42. A(H   4,O   3,H  16)          117.6255         0.216334   
     43. A(H   4,O   3,H   5)          107.5154         0.314688   
     44. A(O   3,H   4,O   9)          164.0561         0.204149   
     45. A(O   9,H   4,H  10)           25.2270         0.112104   
     46. A(O   3,H   4,H  10)          160.4441         0.134603   
     47. A(O   3,H   5,H  16)           55.6295         0.143161   
     48. A(H   8,O   6,H  17)          130.5137         0.201113   
     49. A(H   7,O   6,H  19)           72.2459         0.208898   
     50. A(H  17,O   6,H  19)           92.5111         0.144219   
     51. A(H   7,O   6,H  17)          119.8768         0.203851   
     52. A(H   7,O   6,H   8)          102.7496         0.332433   
     53. A(H   8,O   6,H  19)          125.5520         0.206040   
     54. A(H   1,H   7,H   2)           35.5663         0.095586   
     55. A(O   0,H   7,H   1)           21.4302         0.103999   
     56. A(H   1,H   7,O   6)          116.8432         0.126876   
     57. A(O   0,H   7,H   2)           23.8988         0.106171   
     58. A(H   2,H   7,O   6)          149.0032         0.132360   
     59. A(O   0,H   7,O   6)          136.0747         0.187755   
     60. A(H   2,H   7,H  19)          118.4505         0.101361   
     61. A(H   1,H   7,H  19)          107.8869         0.099797   
     62. A(O   0,H   7,H  19)          100.2165         0.117152   
     63. A(O   6,H   7,H  19)           77.8168         0.160089   
     64. A(H   4,O   9,H  11)          129.7958         0.211351   
     65. A(H   4,O   9,H  10)          103.3848         0.203854   
     66. A(H  10,O   9,H  11)          111.6555         0.329879   
     67. A(H   4,H  10,O  18)           91.3794         0.103962   
     68. A(O   9,H  10,O  18)          140.0853         0.163377   
     69. A(H   4,H  10,O   9)           51.3882         0.134486   
     70. A(H  13,O  12,H  14)          107.2695         0.322108   
     71. A(H   2,H  14,O  12)          129.2015         0.124480   
     72. A(O   0,H  14,H   1)           23.7708         0.107115   
     73. A(H   1,H  14,O  12)          146.9213         0.130149   
     74. A(O   0,H  14,O  12)          149.1387         0.188517   
     75. A(H   1,H  14,H   2)           35.3490         0.095458   
     76. A(O   0,H  14,H   2)           19.9719         0.104619   
     77. A(H  16,O  15,H  17)           97.9163         0.300867   
     78. A(O   3,H  16,H   5)           29.0425         0.119558   
     79. A(H   5,H  16,O  15)          150.5142         0.141211   
     80. A(O   3,H  16,O  15)          170.6409         0.210889   
     81. A(O   6,H  17,O  15)          169.7395         0.195774   
     82. A(H  10,O  18,H  20)          138.7991         0.164182   
     83. A(H  10,O  18,H  19)          106.4270         0.163194   
     84. A(H  19,O  18,H  20)           94.9489         0.317008   
     85. A(O   6,H  19,H   7)           29.9373         0.123179   
     86. A(H   7,H  19,O  18)          149.1819         0.156527   
     87. A(O   6,H  19,O  18)          153.1168         0.202890   
     88. D(H  14,H   1,O   0,H   2)   -119.3430         0.394052   
     89. D(H  14,H   1,O   0,H   7)    139.3436         0.394052   
     90. D(H   7,H   1,O   0,H  14)   -139.3436         0.394052   
     91. D(H   7,H   1,O   0,H   2)    101.3133         0.394052   
     92. D(H  14,H   2,O   0,H   7)   -141.0372         0.426873   
     93. D(H   7,H   2,O   0,H   1)   -110.3848         0.426873   
     94. D(H   7,H   2,O   0,H  14)    141.0372         0.426873   
     95. D(H  14,H   2,O   0,H   1)    108.5780         0.426873   
     96. D(H  10,H   4,O   3,H  16)    -54.0197         0.334228   
     97. D(O   9,H   4,O   3,H  16)   -144.9165         0.334228   
     98. D(O   9,H   4,O   3,H   5)    -38.9505         0.334228   
     99. D(H  10,H   4,O   3,H   5)     51.9463         0.334228   
    100. D(H  16,H   5,O   3,H   4)   -121.1832         0.278250   
    101. D(O   6,H   7,O   0,H   2)   -134.9935         0.001574   
    102. D(H   2,H   7,H   1,H  14)    -74.8426         0.001502   
    103. D(H   2,H   7,H   1,O   0)    -42.3495         0.001502   
    104. D(O   6,H   7,H   1,O   0)    156.9235         0.001502   
    105. D(O   6,H   7,H   1,H  14)    124.4304         0.001502   
    106. D(H  19,H   7,O   6,H  17)     82.4793         0.718198   
    107. D(H   2,H   7,O   6,H  17)    -43.4662         0.718198   
    108. D(H   2,H   7,O   6,H   8)    110.4468         0.718198   
    109. D(O   0,H   7,H   1,H  14)    -32.4931         0.001502   
    110. D(H   1,H   7,O   6,H  19)   -104.0577         0.718198   
    111. D(O   0,H   7,O   6,H  17)     -9.6648         0.718198   
    112. D(H   1,H   7,O   6,H   8)    132.3345         0.718198   
    113. D(O   6,H   7,O   0,H   1)    -30.2736         0.001574   
    114. D(H   2,H   7,O   0,H  14)   -132.0563         0.001574   
    115. D(H  19,H   7,H   1,O   0)     71.8113         0.001502   
    116. D(H  19,H   7,H   1,H  14)     39.3182         0.001502   
    117. D(O   6,H   7,H   2,O   0)     72.2924         0.001506   
    118. D(H   1,H   7,O   0,H   2)   -104.7199         0.001574   
    119. D(H  19,H   7,H   2,O   0)    -43.5441         0.001506   
    120. D(H   1,H   7,H   2,H  14)     63.6979         0.001506   
    121. D(H  19,H   7,H   2,H  14)    -17.2585         0.001506   
    122. D(H   1,H   7,H   2,O   0)     37.4123         0.001506   
    123. D(O   0,H   7,O   6,H   8)    144.2482         0.718198   
    124. D(H   1,H   7,O   0,H  14)    123.2239         0.001574   
    125. D(O   0,H   7,O   6,H  19)    -92.1441         0.718198   
    126. D(H   2,H   7,O   0,H   1)    104.7199         0.001574   
    127. D(H   1,H   7,O   6,H  17)    -21.5784         0.718198   
    128. D(H  19,H   7,O   0,H   1)   -113.2662         0.001574   
    129. D(H  19,H   7,O   0,H   2)    142.0139         0.001574   
    130. D(O   6,H   7,O   0,H  14)     92.9503         0.001574   
    131. D(H   2,H   7,O   6,H  19)   -125.9454         0.718198   
    132. D(H  19,H   7,O   0,H  14)      9.9576         0.001574   
    133. D(H  19,H   7,O   6,H   8)   -123.6078         0.718198   
    134. D(O   6,H   7,H   2,H  14)     98.5779         0.001506   
    135. D(O   0,H   7,H   2,H  14)     26.2856         0.001506   
    136. D(H  11,O   9,H   4,O   3)    -97.9625         0.001855   
    137. D(H  10,O   9,H   4,O   3)    128.2544         0.001855   
    138. D(H  11,O   9,H   4,H  10)    133.7830         0.001855   
    139. D(O  18,H  10,O   9,H   4)    -24.9554         0.324625   
    140. D(O  18,H  10,O   9,H  11)   -168.3120         0.324625   
    141. D(H   4,H  10,O   9,H  11)   -143.3566         0.324625   
    142. D(O  18,H  10,H   4,O   9)    164.2883         0.001511   
    143. D(O   9,H  10,H   4,O   3)   -139.8767         0.001511   
    144. D(O  18,H  10,H   4,O   3)     24.4116         0.001511   
    145. D(H   1,H  14,O   0,H   7)   -125.9580         0.001615   
    146. D(H   1,H  14,O   0,H   2)    108.8513         0.001615   
    147. D(O  12,H  14,O   0,H   7)    129.3806         0.001615   
    148. D(O  12,H  14,O   0,H   2)      4.1900         0.001615   
    149. D(H   2,H  14,O   0,H   1)   -108.8513         0.001615   
    150. D(O  12,H  14,O   0,H   1)   -104.6614         0.001615   
    151. D(H   2,H  14,O  12,H  13)     35.6455         0.324169   
    152. D(H   1,H  14,O  12,H  13)    -11.8002         0.324169   
    153. D(H   1,H  14,H   2,H   7)    -74.1714         0.001501   
    154. D(H   1,H  14,H   2,O   0)    -41.2486         0.001501   
    155. D(O   0,H  14,H   2,H   7)    -32.9228         0.001501   
    156. D(O  12,H  14,H   2,H   7)    149.8494         0.001501   
    157. D(O  12,H  14,H   2,O   0)   -177.2279         0.001501   
    158. D(H   2,H  14,H   1,H   7)     64.2214         0.001505   
    159. D(H   2,H  14,H   1,O   0)     33.9658         0.001505   
    160. D(O   0,H  14,H   1,H   7)     30.2556         0.001505   
    161. D(O   0,H  14,O  12,H  13)     33.8000         0.324169   
    162. D(O  12,H  14,H   1,H   7)    144.8541         0.001505   
    163. D(O  12,H  14,H   1,O   0)    114.5985         0.001505   
    164. D(H   2,H  14,O   0,H   7)    125.1907         0.001615   
    165. D(H   5,H  16,O  15,H  17)   -108.7593         0.184622   
    166. D(O   3,H  16,O  15,H  17)    172.3107         0.184622   
    167. D(O  15,H  16,H   5,O   3)   -160.8070         0.001547   
    168. D(H   5,H  16,O   3,H   4)    112.9525         0.002402   
    169. D(O  15,H  16,O   3,H   5)     95.7109         0.002402   
    170. D(O  15,H  16,O   3,H   4)   -151.3365         0.002402   
    171. D(O   6,H  17,O  15,H  16)    -65.3174         0.196975   
    172. D(O  15,H  17,O   6,H  19)     73.3646         0.001727   
    173. D(O  15,H  17,O   6,H   8)   -143.2168         0.001727   
    174. D(O  15,H  17,O   6,H   7)      2.4401         0.001727   
    175. D(H  20,O  18,H  10,H   4)    162.0913         0.001508   
    176. D(H  20,O  18,H  10,O   9)   -178.6536         0.001508   
    177. D(H  19,O  18,H  10,H   4)     43.8421         0.001508   
    178. D(H  19,O  18,H  10,O   9)     63.0972         0.001508   
    179. D(H   7,H  19,O  18,H  20)    -28.2971         0.315715   
    180. D(O   6,H  19,O  18,H  10)   -179.6523         0.315715   
    181. D(O   6,H  19,O  18,H  20)     35.9687         0.315715   
    182. D(O   6,H  19,H   7,H   1)    114.5658         0.001942   
    183. D(O   6,H  19,H   7,O   0)    135.2186         0.001942   
    184. D(O  18,H  19,H   7,H   2)    -83.0128         0.001942   
    185. D(O  18,H  19,H   7,H   1)   -120.1402         0.001942   
    186. D(O  18,H  19,H   7,O   0)    -99.4873         0.001942   
    187. D(O  18,H  19,H   7,O   6)    125.2940         0.001942   
    188. D(H   7,H  19,O   6,H  17)   -120.6311         0.001867   
    189. D(O   6,H  19,H   7,H   2)    151.6932         0.001942   
    190. D(H   7,H  19,O   6,H   8)     93.2102         0.001867   
    191. D(O  18,H  19,O   6,H  17)    127.0006         0.001867   
    192. D(O  18,H  19,O   6,H   8)    -19.1582         0.001867   
    193. D(H   7,H  19,O  18,H  10)    116.0820         0.315715   
    194. D(O  18,H  19,O   6,H   7)   -112.3683         0.001867   
    -----------------------------------------------------------------

Number of atoms                         .... 21
Number of degrees of freedom            .... 194

         *************************************************************
         *                GEOMETRY OPTIMIZATION CYCLE   1            *
         *************************************************************
---------------------------------
CARTESIAN COORDINATES (ANGSTROEM)
---------------------------------
  O      7.274630    4.418810    3.839960
  H      7.890590    4.728740    4.517000
  H      7.792430    3.742020    3.402360
  O      5.123840    7.671090    5.672860
  H      4.574490    6.941540    5.332810
  H      4.719700    8.513250    5.366770
  O      7.416010    6.660260    2.220580
  H      7.281350    5.755740    2.308690
  H      7.864370    6.724860    1.388110
  O      3.197130    5.915310    4.820910
  H      3.436910    5.652450    3.910360
  H      2.779870    5.248110    5.260830
  O      5.294200    3.014400    5.329440
  H      5.918050    2.334220    5.512050
  H      5.788230    3.766150    4.946310
  O      7.560020    8.154440    4.639890
  H      6.603100    7.933690    4.940640
  H      7.520840    7.728220    3.729020
  O      4.720710    6.387700    2.129930
  H      5.650970    6.387060    2.439910
  H      4.933240    6.118480    1.228330

----------------------------
CARTESIAN COORDINATES (A.U.)
----------------------------
  NO LB      ZA    FRAG     MASS         X           Y           Z
   0 O     8.0000    0    15.999   13.747058    8.350341    7.256473
   1 H     1.0000    0     1.008   14.911054    8.936024    8.535893
   2 H     1.0000    0     1.008   14.725559    7.071393    6.429529
   3 O     8.0000    0    15.999    9.682654   14.496259   10.720152
   4 H     1.0000    0     1.008    8.644533   13.117610   10.077550
   5 H     1.0000    0     1.008    8.918940   16.087711   10.141726
   6 O     8.0000    0    15.999   14.014228   12.586067    4.196288
   7 H     1.0000    0     1.008   13.759757   10.876772    4.362792
   8 H     1.0000    0     1.008   14.861506   12.708144    2.623148
   9 O     8.0000    0    15.999    6.041700   11.178316    9.110200
  10 H     1.0000    0     1.008    6.494819   10.681582    7.389509
  11 H     1.0000    0     1.008    5.253193    9.917491    9.941528
  12 O     8.0000    0    15.999   10.004588    5.696390   10.071182
  13 H     1.0000    0     1.008   11.183494    4.411037   10.416265
  14 H     1.0000    0     1.008   10.938170    7.116992    9.347171
  15 O     8.0000    0    15.999   14.286367   15.409658    8.768121
  16 H     1.0000    0     1.008   12.478051   14.992501    9.336457
  17 H     1.0000    0     1.008   14.212328   14.604219    7.046827
  18 O     8.0000    0    15.999    8.920849   12.071004    4.024984
  19 H     1.0000    0     1.008   10.678786   12.069794    4.610762
  20 H     1.0000    0     1.008    9.322473   11.562252    2.321207

--------------------------------
INTERNAL COORDINATES (ANGSTROEM)
--------------------------------
 O      0   0   0     0.000000000000     0.00000000     0.00000000
 H      1   0   0     0.966357329408     0.00000000     0.00000000
 H      1   2   0     0.957943267683   101.65972749     0.00000000
 O      2   1   3     4.200992909373    89.86279830   176.01430477
 H      4   2   1     0.974506350672    75.57662808    29.31070749
 H      4   2   1     0.982982041189   141.73476077   289.19035696
 O      1   2   3     2.768840549996    96.75246784   251.97620063
 H      7   1   2     0.918723635322    30.61755150   151.19342372
 H      7   1   2     0.947737384775   126.37454775   106.13931923
 O      5   4   2     1.792291882618   164.05613880   180.78973072
 H     10   5   4     0.977594563457   103.38482014   128.25444541
 H     10   5   4     0.901549418501   129.79576205   262.03749541
 O      1   2   3     2.848336550234   103.58855722   109.24952271
 H     13   1   2     0.940840085774    89.82370308   289.59901384
 H     13   1   2     0.977743473668    20.71956434    77.51107019
 O      4   2   1     2.689912124178    54.81100839   243.51354247
 H     16   4   2     1.027072057550     5.79912504    68.93127828
 H     16   4   2     1.006420745861   103.66240632    61.09259010
 O     11  10   5     2.314879259789   140.08529091   335.04463161
 H     19  11  10     0.980546621839   106.42704125    63.09717033
 H     19  11  10     0.964640331574   138.79905423   181.34636401

---------------------------
INTERNAL COORDINATES (A.U.)
---------------------------
 O      0   0   0     0.000000000000     0.00000000     0.00000000
 H      1   0   0     1.826150700088     0.00000000     0.00000000
 H      1   2   0     1.810250427755   101.65972749     0.00000000
 O      2   1   3     7.938726089260    89.86279830   176.01430477
 H      4   2   1     1.841550118537    75.57662808    29.31070749
 H      4   2   1     1.857566852410   141.73476077   289.19035696
 O      1   2   3     5.232350347988    96.75246784   251.97620063
 H      7   1   2     1.736136063520    30.61755150   151.19342372
 H      7   1   2     1.790964104103   126.37454775   106.13931923
 O      5   4   2     3.386940810199   164.05613880   180.78973072
 H     10   5   4     1.847385994943   103.38482014   128.25444541
 H     10   5   4     1.703681497163   129.79576205   262.03749541
 O      1   2   3     5.382576017181   103.58855722   109.24952271
 H     13   1   2     1.777930097929    89.82370308   289.59901384
 H     13   1   2     1.847667394461    20.71956434    77.51107019
 O      4   2   1     5.083197239011    54.81100839   243.51354247
 H     16   4   2     1.940884908573     5.79912504    68.93127828
 H     16   4   2     1.901859585175   103.66240632    61.09259010
 O     11  10   5     4.374487834095   140.08529091   335.04463161
 H     19  11  10     1.852964576817   106.42704125    63.09717033
 H     19  11  10     1.822906044411   138.79905423   181.34636401

---------------------
BASIS SET INFORMATION
---------------------
There are 2 groups of distinct atoms

 Group   1 Type O   : 7s4p1d contracted to 3s2p1d pattern {511/31/1}
 Group   2 Type H   : 4s1p contracted to 2s1p pattern {31/1}

Atom   0O    basis set group =>   1
Atom   1H    basis set group =>   2
Atom   2H    basis set group =>   2
Atom   3O    basis set group =>   1
Atom   4H    basis set group =>   2
Atom   5H    basis set group =>   2
Atom   6O    basis set group =>   1
Atom   7H    basis set group =>   2
Atom   8H    basis set group =>   2
Atom   9O    basis set group =>   1
Atom  10H    basis set group =>   2
Atom  11H    basis set group =>   2
Atom  12O    basis set group =>   1
Atom  13H    basis set group =>   2
Atom  14H    basis set group =>   2
Atom  15O    basis set group =>   1
Atom  16H    basis set group =>   2
Atom  17H    basis set group =>   2
Atom  18O    basis set group =>   1
Atom  19H    basis set group =>   2
Atom  20H    basis set group =>   2
[1615912925.487614] [comp0813:190522:0]            sys.c:618  UCX  ERROR shmget(size=2097152 flags=0xfb0) for mm_recv_desc failed: Operation not permitted, please check shared memory limits by 'ipcs -l'
[1615912925.503825] [comp0813:190520:0]            sys.c:618  UCX  ERROR shmget(size=2097152 flags=0xfb0) for mm_recv_desc failed: Operation not permitted, please check shared memory limits by 'ipcs -l'
[1615912925.504861] [comp0813:190521:0]            sys.c:618  UCX  ERROR shmget(size=2097152 flags=0xfb0) for mm_recv_desc failed: Operation not permitted, please check shared memory limits by 'ipcs -l'
[1615912925.517723] [comp0813:190524:0]            sys.c:618  UCX  ERROR shmget(size=2097152 flags=0xfb0) for mm_recv_desc failed: Operation not permitted, please check shared memory limits by 'ipcs -l'
[1615912925.538882] [comp0813:190520:0]            sys.c:618  UCX  ERROR shmget(size=2097152 flags=0xb80) for ucp_am_bufs failed: Operation not permitted, please check shared memory limits by 'ipcs -l'
[1615912925.538932] [comp0813:190522:0]            sys.c:618  UCX  ERROR shmget(size=2097152 flags=0xb80) for ucp_am_bufs failed: Operation not permitted, please check shared memory limits by 'ipcs -l'
[1615912925.539886] [comp0813:190524:0]            sys.c:618  UCX  ERROR shmget(size=2097152 flags=0xb80) for ucp_am_bufs failed: Operation not permitted, please check shared memory limits by 'ipcs -l'
[1615912925.546319] [comp0813:190521:0]            sys.c:618  UCX  ERROR shmget(size=2097152 flags=0xb80) for ucp_am_bufs failed: Operation not permitted, please check shared memory limits by 'ipcs -l'


           ************************************************************
           *        Program running with 4 parallel MPI-processes     *
           *              working on a common directory               *
           ************************************************************
------------------------------------------------------------------------------
                           ORCA GTO INTEGRAL CALCULATION
------------------------------------------------------------------------------

                         BASIS SET STATISTICS AND STARTUP INFO

 # of primitive gaussian shells          ...  154
 # of primitive gaussian functions       ...  266
 # of contracted shells                  ...   84
 # of contracted basis functions         ...  168
 Highest angular momentum                ...    2
 Maximum contraction depth               ...    5
 Integral package used                   ... LIBINT
 Integral threshhold            Thresh   ...  2.500e-11
 Primitive cut-off              TCut     ...  2.500e-12


------------------------------ INTEGRAL EVALUATION ----------------------------


 * One electron integrals 
 Pre-screening matrix                    ... done
 Shell pair data                         ... done (   0.001 sec)

[1615912926.773320] [comp0813:190587:0]            sys.c:618  UCX  ERROR shmget(size=2097152 flags=0xfb0) for mm_recv_desc failed: Operation not permitted, please check shared memory limits by 'ipcs -l'
[1615912926.778992] [comp0813:190588:0]            sys.c:618  UCX  ERROR shmget(size=2097152 flags=0xfb0) for mm_recv_desc failed: Operation not permitted, please check shared memory limits by 'ipcs -l'
[1615912926.792278] [comp0813:190589:0]            sys.c:618  UCX  ERROR shmget(size=2097152 flags=0xfb0) for mm_recv_desc failed: Operation not permitted, please check shared memory limits by 'ipcs -l'
[1615912926.804644] [comp0813:190593:0]            sys.c:618  UCX  ERROR shmget(size=2097152 flags=0xfb0) for mm_recv_desc failed: Operation not permitted, please check shared memory limits by 'ipcs -l'
[1615912926.818677] [comp0813:190587:0]            sys.c:618  UCX  ERROR shmget(size=2097152 flags=0xb80) for ucp_am_bufs failed: Operation not permitted, please check shared memory limits by 'ipcs -l'
[1615912926.818677] [comp0813:190589:0]            sys.c:618  UCX  ERROR shmget(size=2097152 flags=0xb80) for ucp_am_bufs failed: Operation not permitted, please check shared memory limits by 'ipcs -l'
[1615912926.819471] [comp0813:190593:0]            sys.c:618  UCX  ERROR shmget(size=2097152 flags=0xb80) for ucp_am_bufs failed: Operation not permitted, please check shared memory limits by 'ipcs -l'
[1615912926.819556] [comp0813:190588:0]            sys.c:618  UCX  ERROR shmget(size=2097152 flags=0xb80) for ucp_am_bufs failed: Operation not permitted, please check shared memory limits by 'ipcs -l'


           ************************************************************
           *        Program running with 4 parallel MPI-processes     *
           *              working on a common directory               *
           ************************************************************
-------------------------------------------------------------------------------
                                 ORCA SCF
-------------------------------------------------------------------------------

------------
SCF SETTINGS
------------
Hamiltonian:
 Density Functional     Method          .... DFT(GTOs)
 Exchange Functional    Exchange        .... PBE
   PBE kappa parameter   XKappa         ....  0.804000
   PBE mue parameter    XMuePBE         ....  0.219520
 Correlation Functional Correlation     .... PBE
   PBE beta parameter  CBetaPBE         ....  0.066725
 LDA part of GGA corr.  LDAOpt          .... PW91-LDA
 Gradients option       PostSCFGGA      .... off
 Hybrid DFT is turned on
   Fraction HF Exchange ScalHFX         ....  0.250000
   Scaling of DF-GGA-X  ScalDFX         ....  0.750000
   Scaling of DF-GGA-C  ScalDFC         ....  1.000000
   Scaling of DF-LDA-C  ScalLDAC        ....  1.000000
   Perturbative correction              ....  0.000000
   Density functional embedding theory  .... OFF
   NL short-range parameter             ....  6.900000


General Settings:
 Integral files         IntName         .... septamer4
 Hartree-Fock type      HFTyp           .... RHF
 Total Charge           Charge          ....    0
 Multiplicity           Mult            ....    1
 Number of Electrons    NEL             ....   70
 Basis Dimension        Dim             ....  168
 Nuclear Repulsion      ENuc            ....    366.4339296073 Eh

Convergence Acceleration:
 DIIS                   CNVDIIS         .... on
   Start iteration      DIISMaxIt       ....    12
   Startup error        DIISStart       ....  0.200000
   # of expansion vecs  DIISMaxEq       ....     5
   Bias factor          DIISBfac        ....   1.050
   Max. coefficient     DIISMaxC        ....  10.000
 Newton-Raphson         CNVNR           .... off
 SOSCF                  CNVSOSCF        .... on
   Start iteration      SOSCFMaxIt      ....   150
   Startup grad/error   SOSCFStart      ....  0.003300
 Level Shifting         CNVShift        .... on
   Level shift para.    LevelShift      ....    0.2500
   Turn off err/grad.   ShiftErr        ....    0.0010
 Zerner damping         CNVZerner       .... off
 Static damping         CNVDamp         .... on
   Fraction old density DampFac         ....    0.7000
   Max. Damping (<1)    DampMax         ....    0.9800
   Min. Damping (>=0)   DampMin         ....    0.0000
   Turn off err/grad.   DampErr         ....    0.1000
 Fernandez-Rico         CNVRico         .... off

SCF Procedure:
 Maximum # iterations   MaxIter         ....   125
 SCF integral mode      SCFMode         .... Direct
   Integral package                     .... LIBINT
 Reset frequency        DirectResetFreq ....    20
 Integral Threshold     Thresh          ....  2.500e-11 Eh
 Primitive CutOff       TCut            ....  2.500e-12 Eh

Convergence Tolerance:
 Convergence Check Mode ConvCheckMode   .... Total+1el-Energy
 Convergence forced     ConvForced      .... 0
 Energy Change          TolE            ....  1.000e-08 Eh
 1-El. energy change                    ....  1.000e-05 Eh
 Orbital Gradient       TolG            ....  1.000e-05
 Orbital Rotation angle TolX            ....  1.000e-05
 DIIS Error             TolErr          ....  5.000e-07


Diagonalization of the overlap matrix:
Smallest eigenvalue                        ... 2.060e-02
Time for diagonalization                   ...    0.008 sec
Threshold for overlap eigenvalues          ... 1.000e-08
Number of eigenvalues below threshold      ... 0
Time for construction of square roots      ...    0.003 sec
Total time needed                          ...    0.010 sec

-------------------
DFT GRID GENERATION
-------------------

General Integration Accuracy     IntAcc      ...  4.340
Radial Grid Type                 RadialGrid  ... Gauss-Chebyshev
Angular Grid (max. acc.)         AngularGrid ... Lebedev-110
Angular grid pruning method      GridPruning ... 3 (G Style)
Weight generation scheme         WeightScheme... Becke
Basis function cutoff            BFCut       ...    1.0000e-11
Integration weight cutoff        WCut        ...    1.0000e-14
Grids for H and He will be reduced by one unit

# of grid points (after initial pruning)     ...  23128 (   0.0 sec)
# of grid points (after weights+screening)   ...  21655 (   0.0 sec)
nearest neighbour list constructed           ...    0.0 sec
Grid point re-assignment to atoms done       ...    0.0 sec
Grid point division into batches done        ...    0.0 sec
Reduced shell lists constructed in    0.1 sec

Total number of grid points                  ...    21655
Total number of batches                      ...      350
Average number of points per batch           ...       61
Average number of grid points per atom       ...     1031
Average number of shells per batch           ...    50.81 (60.49%)
Average number of basis functions per batch  ...    91.06 (54.20%)
Average number of large shells per batch     ...    34.84 (68.58%)
Average number of large basis fcns per batch ...    59.47 (65.31%)
Maximum spatial batch extension              ...  16.01, 13.63, 19.34 au
Average spatial batch extension              ...   0.87,  0.81,  0.94 au

Time for grid setup =    0.130 sec

------------------------------
INITIAL GUESS: MODEL POTENTIAL
------------------------------
Loading Hartree-Fock densities                     ... done
Calculating cut-offs                               ... done
Setting up the integral package                    ... done
Initializing the effective Hamiltonian             ... done
Starting the Coulomb interaction                   ... done (   0.0 sec)
Reading the grid                                   ... done
Mapping shells                                     ... done
Starting the XC term evaluation                    ... done (   0.1 sec)
  promolecular density results
     # of electrons  =     69.979119451
     EX              =    -61.181675711
     EC              =     -2.258635377
     EX+EC           =    -63.440311089
Transforming the Hamiltonian                       ... done (   0.0 sec)
Diagonalizing the Hamiltonian                      ... done (   0.0 sec)
Back transforming the eigenvectors                 ... done (   0.0 sec)
Now organizing SCF variables                       ... done
                      ------------------
                      INITIAL GUESS DONE (   0.3 sec)
                      ------------------

--------------------
CPCM SOLVATION MODEL
--------------------
CPCM parameters:
  Epsilon                                         ...      78.3550
  Refrac                                          ...       1.3300
  Rsolv                                           ...       1.3000
  Surface type                                    ...    GEPOL SES
  Epsilon function type                           ...         CPCM
Solvent:                                     ... WATER
SMD-CDS solvent descriptors:
  Soln                                       ...    1.3328
  Soln25                                     ...    1.3323
  Sola                                       ...    0.0000
  Solb                                       ...    0.0000
  Solg                                       ...    0.0000
  Solc                                       ...    0.0000
  Solh                                       ...    0.0000
Radii:
 Radius for O  used is    2.8724 Bohr (=   1.5200 Ang.)
 Radius for H  used is    2.2677 Bohr (=   1.2000 Ang.)
Calculating surface                               ...        done! (  0.2s)
GEPOL surface points                              ...         1474
GEPOL Volume                                      ...     997.4604
GEPOL Surface-area                                ...     657.3436
Calculating surface distance matrix               ...        done! (  0.0s)
Performing Cholesky decomposition & store         ...        done! (  0.1s)
Overall time for CPCM initialization              ...                 0.3s
--------------
SCF ITERATIONS
--------------
ITER       Energy         Delta-E        Max-DP      RMS-DP      [F,P]     Damp
               ***  Starting incremental Fock matrix formation  ***
  0   -533.5887201630   0.000000000000 0.08409430  0.00294916  0.2958968 0.7000
  1   -533.8166511327  -0.227930969762 0.04893736  0.00171061  0.1350114 0.7000
                               ***Turning on DIIS***
  2   -533.9007855784  -0.084134445696 0.06229607  0.00215178  0.0422223 0.0000
  3   -534.0365396296  -0.135754051153 0.02993784  0.00110012  0.0714811 0.0000
  4   -534.0644899958  -0.027950366226 0.00530860  0.00022561  0.0123452 0.0000
                      *** Initiating the SOSCF procedure ***
                           *** Shutting down DIIS ***
                      *** Re-Reading the Fockian *** 
                      *** Removing any level shift *** 
ITER      Energy       Delta-E        Grad      Rot      Max-DP    RMS-DP
  5   -534.06541204  -0.0009220472  0.000683  0.000683  0.001779  0.000066
               *** Restarting incremental Fock matrix formation ***
  6   -534.06545584  -0.0000437954  0.000335  0.000538  0.001574  0.000047
  7   -534.06545588  -0.0000000423  0.000421  0.000176  0.000912  0.000021
  8   -534.06546275  -0.0000068721  0.000027  0.000037  0.000088  0.000003
  9   -534.06546274   0.0000000089  0.000038  0.000017  0.000052  0.000001
                  ***Gradient check signals convergence***
              ***Rediagonalizing the Fockian in SOSCF/NRSCF***

               *****************************************************
               *                     SUCCESS                       *
               *           SCF CONVERGED AFTER  10 CYCLES          *
               *****************************************************

Setting up the final grid:

General Integration Accuracy     IntAcc      ...  4.670
Radial Grid Type                 RadialGrid  ... Gauss-Chebyshev
Angular Grid (max. acc.)         AngularGrid ... Lebedev-302
Angular grid pruning method      GridPruning ... 3 (G Style)
Weight generation scheme         WeightScheme... Becke
Basis function cutoff            BFCut       ...    1.0000e-11
Integration weight cutoff        WCut        ...    1.0000e-14
Grids for H and He will be reduced by one unit

# of grid points (after initial pruning)     ...  91000 (   0.0 sec)
# of grid points (after weights+screening)   ...  83925 (   0.1 sec)
nearest neighbour list constructed           ...    0.0 sec
Grid point re-assignment to atoms done       ...    0.0 sec
Grid point division into batches done        ...    0.3 sec
Reduced shell lists constructed in    0.4 sec

Total number of grid points                  ...    83925
Total number of batches                      ...     1321
Average number of points per batch           ...       63
Average number of grid points per atom       ...     3996
Average number of shells per batch           ...    45.67 (54.37%)
Average number of basis functions per batch  ...    79.90 (47.56%)
Average number of large shells per batch     ...    30.72 (67.26%)
Average number of large basis fcns per batch ...    51.70 (64.70%)
Maximum spatial batch extension              ...  16.20, 12.65, 13.53 au
Average spatial batch extension              ...   0.58,  0.56,  0.59 au

Final grid set up in    0.6 sec
Final integration                            ... done (   0.2 sec)
Change in XC energy                          ...     0.000999092
Integrated number of electrons               ...    70.000053896
Previous integrated no of electrons          ...    70.002339147

SMD CDS free energy correction energy :                 6.53601     Kcal/mol
Total Energy after SMD CDS correction =              -534.054047890 Eh

----------------
TOTAL SCF ENERGY
----------------

Total Energy       :         -534.05404789 Eh          -14532.34945 eV

Components:
Nuclear Repulsion  :          366.43392961 Eh            9971.17415 eV
Electronic Energy  :         -900.48797750 Eh          -24503.52360 eV
One Electron Energy:        -1465.96286958 Eh          -39890.87769 eV
Two Electron Energy:          565.47489208 Eh           15387.35409 eV
CPCM Dielectric    :           -0.08324373 Eh              -2.26518 eV
SMD CDS (Gcds)     :            0.01041579 Eh               0.28343 eV

Virial components:
Potential Energy   :        -1064.46738280 Eh          -28965.63007 eV
Kinetic Energy     :          530.41333491 Eh           14433.28062 eV
Virial Ratio       :            2.00686392


DFT components:
N(Alpha)           :       35.000026948024 electrons
N(Beta)            :       35.000026948024 electrons
N(Total)           :       70.000053896048 electrons
E(X)               :      -46.915203745125 Eh       
E(C)               :       -2.341699274753 Eh       
E(XC)              :      -49.256903019877 Eh       
DFET-embed. en.    :        0.000000000000 Eh       
CPCM Solvation Model Properties:
Surface-charge          :           -0.02681581
Charge-correction       :           -0.00010078 Eh              -0.00274 eV
Free-energy (cav+disp)  :            0.00408929 Eh               0.11128 eV
Corrected G(solv)       :         -534.05005937 Eh          -14532.24092 eV

---------------
SCF CONVERGENCE
---------------

  Last Energy change         ...   -2.7426e-08  Tolerance :   1.0000e-08
  Last MAX-Density change    ...    1.7497e-06  Tolerance :   1.0000e-07
  Last RMS-Density change    ...    5.9110e-08  Tolerance :   5.0000e-09
  Last Orbital Gradient      ...    5.3340e-07  Tolerance :   1.0000e-05
  Last Orbital Rotation      ...    8.8012e-07  Tolerance :   1.0000e-05

             **** THE GBW FILE WAS UPDATED (septamer4.gbw) ****
             **** DENSITY FILE WAS UPDATED (septamer4.scfp) ****
             **** ENERGY FILE WAS UPDATED (septamer4.en.tmp) ****
             **** THE GBW FILE WAS UPDATED (septamer4.gbw) ****
             **** DENSITY FILE WAS UPDATED (septamer4.scfp) ****
----------------
ORBITAL ENERGIES
----------------

  NO   OCC          E(Eh)            E(eV) 
   0   2.0000     -19.218524      -522.9626 
   1   2.0000     -19.216637      -522.9113 
   2   2.0000     -19.206526      -522.6361 
   3   2.0000     -19.203905      -522.5648 
   4   2.0000     -19.194911      -522.3201 
   5   2.0000     -19.181349      -521.9510 
   6   2.0000     -19.163418      -521.4631 
   7   2.0000      -1.050455       -28.5843 
   8   2.0000      -1.030370       -28.0378 
   9   2.0000      -1.028275       -27.9808 
  10   2.0000      -1.009440       -27.4683 
  11   2.0000      -1.005023       -27.3481 
  12   2.0000      -0.995582       -27.0912 
  13   2.0000      -0.956614       -26.0308 
  14   2.0000      -0.565052       -15.3759 
  15   2.0000      -0.564487       -15.3605 
  16   2.0000      -0.539738       -14.6870 
  17   2.0000      -0.538504       -14.6534 
  18   2.0000      -0.525639       -14.3034 
  19   2.0000      -0.503854       -13.7106 
  20   2.0000      -0.488252       -13.2860 
  21   2.0000      -0.435925       -11.8621 
  22   2.0000      -0.418567       -11.3898 
  23   2.0000      -0.418188       -11.3795 
  24   2.0000      -0.407182       -11.0800 
  25   2.0000      -0.381962       -10.3937 
  26   2.0000      -0.377966       -10.2850 
  27   2.0000      -0.366461        -9.9719 
  28   2.0000      -0.340582        -9.2677 
  29   2.0000      -0.331033        -9.0079 
  30   2.0000      -0.325510        -8.8576 
  31   2.0000      -0.315278        -8.5792 
  32   2.0000      -0.312790        -8.5114 
  33   2.0000      -0.305402        -8.3104 
  34   2.0000      -0.285299        -7.7634 
  35   0.0000       0.040995         1.1155 
  36   0.0000       0.082364         2.2412 
  37   0.0000       0.091012         2.4766 
  38   0.0000       0.106603         2.9008 
  39   0.0000       0.136315         3.7093 
  40   0.0000       0.139234         3.7887 
  41   0.0000       0.152758         4.1568 
  42   0.0000       0.179231         4.8771 
  43   0.0000       0.194652         5.2967 
  44   0.0000       0.207459         5.6452 
  45   0.0000       0.225137         6.1263 
  46   0.0000       0.250465         6.8155 
  47   0.0000       0.266991         7.2652 
  48   0.0000       0.297667         8.0999 
  49   0.0000       0.514220        13.9926 
  50   0.0000       0.523142        14.2354 
  51   0.0000       0.546631        14.8746 
  52   0.0000       0.562773        15.3138 
  53   0.0000       0.585957        15.9447 
  54   0.0000       0.610452        16.6112 
  55   0.0000       0.629998        17.1431 
  56   0.0000       0.642231        17.4760 
  57   0.0000       0.655673        17.8418 
  58   0.0000       0.665646        18.1131 
  59   0.0000       0.678380        18.4596 
  60   0.0000       0.687688        18.7129 
  61   0.0000       0.715491        19.4695 
  62   0.0000       0.719788        19.5864 
  63   0.0000       0.881206        23.9788 
  64   0.0000       0.894938        24.3525 
  65   0.0000       0.900709        24.5095 
  66   0.0000       0.917268        24.9601 
  67   0.0000       0.931962        25.3600 
  68   0.0000       0.937081        25.4993 
  69   0.0000       0.950509        25.8647 
  70   0.0000       0.960603        26.1393 
  71   0.0000       0.975714        26.5505 
  72   0.0000       0.993392        27.0316 
  73   0.0000       1.001486        27.2518 
  74   0.0000       1.018568        27.7166 
  75   0.0000       1.025123        27.8950 
  76   0.0000       1.029080        28.0027 
  77   0.0000       1.046772        28.4841 
  78   0.0000       1.055439        28.7200 
  79   0.0000       1.065894        29.0044 
  80   0.0000       1.105503        30.0823 
  81   0.0000       1.114189        30.3186 
  82   0.0000       1.131513        30.7900 
  83   0.0000       1.151774        31.3414 
  84   0.0000       1.163942        31.6725 
  85   0.0000       1.197311        32.5805 
  86   0.0000       1.236076        33.6353 
  87   0.0000       1.244790        33.8724 
  88   0.0000       1.262433        34.3525 
  89   0.0000       1.282716        34.9045 
  90   0.0000       1.307293        35.5733 
  91   0.0000       1.340485        36.4765 
  92   0.0000       1.351067        36.7644 
  93   0.0000       1.373730        37.3811 
  94   0.0000       1.381115        37.5821 
  95   0.0000       1.390435        37.8356 
  96   0.0000       1.397804        38.0362 
  97   0.0000       1.437924        39.1279 
  98   0.0000       1.447177        39.3797 
  99   0.0000       1.448397        39.4129 
 100   0.0000       1.461576        39.7715 
 101   0.0000       1.503057        40.9003 
 102   0.0000       1.517372        41.2898 
 103   0.0000       1.532319        41.6965 
 104   0.0000       1.555720        42.3333 
 105   0.0000       1.571751        42.7695 
 106   0.0000       1.597152        43.4607 
 107   0.0000       1.598473        43.4967 
 108   0.0000       1.628470        44.3129 
 109   0.0000       1.667430        45.3731 
 110   0.0000       1.697966        46.2040 
 111   0.0000       1.717963        46.7482 
 112   0.0000       1.796919        48.8966 
 113   0.0000       1.823283        49.6140 
 114   0.0000       1.833898        49.9029 
 115   0.0000       1.863608        50.7114 
 116   0.0000       1.884177        51.2711 
 117   0.0000       1.943920        52.8968 
 118   0.0000       1.966180        53.5025 
 119   0.0000       2.200680        59.8836 
 120   0.0000       2.235185        60.8225 
 121   0.0000       2.241897        61.0051 
 122   0.0000       2.246622        61.1337 
 123   0.0000       2.263992        61.6064 
 124   0.0000       2.275455        61.9183 
 125   0.0000       2.325545        63.2813 
 126   0.0000       2.340835        63.6974 
 127   0.0000       2.362262        64.2804 
 128   0.0000       2.396307        65.2068 
 129   0.0000       2.405673        65.4617 
 130   0.0000       2.418932        65.8225 
 131   0.0000       2.441886        66.4471 
 132   0.0000       2.538820        69.0848 
 133   0.0000       2.920517        79.4713 
 134   0.0000       2.930312        79.7378 
 135   0.0000       2.960672        80.5640 
 136   0.0000       2.966525        80.7233 
 137   0.0000       2.971170        80.8496 
 138   0.0000       2.980022        81.0905 
 139   0.0000       2.982687        81.1630 
 140   0.0000       2.990079        81.3642 
 141   0.0000       2.996542        81.5400 
 142   0.0000       3.003723        81.7355 
 143   0.0000       3.039060        82.6970 
 144   0.0000       3.049633        82.9847 
 145   0.0000       3.074135        83.6515 
 146   0.0000       3.078244        83.7633 
 147   0.0000       3.163371        86.0797 
 148   0.0000       3.170536        86.2747 
 149   0.0000       3.195340        86.9496 
 150   0.0000       3.199872        87.0729 
 151   0.0000       3.213398        87.4410 
 152   0.0000       3.216609        87.5284 
 153   0.0000       3.270856        89.0045 
 154   0.0000       3.483224        94.7833 
 155   0.0000       3.502575        95.3099 
 156   0.0000       3.534763        96.1858 
 157   0.0000       3.554797        96.7309 
 158   0.0000       3.581119        97.4472 
 159   0.0000       3.589729        97.6815 
 160   0.0000       3.634129        98.8897 
 161   0.0000       3.823888       104.0533 
 162   0.0000       3.840416       104.5030 
 163   0.0000       3.846697       104.6739 
 164   0.0000       3.879010       105.5532 
 165   0.0000       3.891671       105.8977 
 166   0.0000       3.915934       106.5580 
 167   0.0000       3.950106       107.4879 

                    ********************************
                    * MULLIKEN POPULATION ANALYSIS *
                    ********************************

-----------------------
MULLIKEN ATOMIC CHARGES
-----------------------
   0 O :   -0.303799
   1 H :    0.208940
   2 H :    0.211773
   3 O :   -0.372892
   4 H :    0.177092
   5 H :    0.221900
   6 O :   -0.272567
   7 H :    0.143241
   8 H :    0.208775
   9 O :   -0.329008
  10 H :    0.200126
  11 H :    0.180649
  12 O :   -0.415333
  13 H :    0.183587
  14 H :    0.168991
  15 O :   -0.524180
  16 H :    0.175965
  17 H :    0.175935
  18 O :   -0.374467
  19 H :    0.148886
  20 H :    0.186386
Sum of atomic charges:   -0.0000000

--------------------------------
MULLIKEN REDUCED ORBITAL CHARGES
--------------------------------
  0 O s       :     3.681541  s :     3.681541
      pz      :     1.504645  p :     4.613083
      px      :     1.540173
      py      :     1.568265
      dz2     :     0.000595  d :     0.009175
      dxz     :     0.003767
      dyz     :     0.000524
      dx2y2   :     0.001196
      dxy     :     0.003093
  1 H s       :     0.720039  s :     0.720039
      pz      :     0.028345  p :     0.071021
      px      :     0.023307
      py      :     0.019369
  2 H s       :     0.716080  s :     0.716080
      pz      :     0.022324  p :     0.072147
      px      :     0.021154
      py      :     0.028669
  3 O s       :     3.674861  s :     3.674861
      pz      :     1.842010  p :     4.690238
      px      :     1.622260
      py      :     1.225968
      dz2     :     0.000720  d :     0.007793
      dxz     :     0.001595
      dyz     :     0.001907
      dx2y2   :     0.000222
      dxy     :     0.003349
  4 H s       :     0.749314  s :     0.749314
      pz      :     0.018506  p :     0.073593
      px      :     0.023864
      py      :     0.031223
  5 H s       :     0.710401  s :     0.710401
      pz      :     0.017346  p :     0.067699
      px      :     0.017770
      py      :     0.032582
  6 O s       :     3.645033  s :     3.645033
      pz      :     1.481441  p :     4.618094
      px      :     1.757783
      py      :     1.378871
      dz2     :     0.003433  d :     0.009440
      dxz     :     0.001723
      dyz     :     0.000397
      dx2y2   :     0.003304
      dxy     :     0.000584
  7 H s       :     0.777188  s :     0.777188
      pz      :     0.019323  p :     0.079571
      px      :     0.020856
      py      :     0.039393
  8 H s       :     0.717864  s :     0.717864
      pz      :     0.034266  p :     0.073361
      px      :     0.022862
      py      :     0.016232
  9 O s       :     3.637779  s :     3.637779
      pz      :     1.325549  p :     4.682835
      px      :     1.766382
      py      :     1.590905
      dz2     :     0.001813  d :     0.008394
      dxz     :     0.000377
      dyz     :     0.002929
      dx2y2   :     0.001181
      dxy     :     0.002093
 10 H s       :     0.730278  s :     0.730278
      pz      :     0.036254  p :     0.069596
      px      :     0.018362
      py      :     0.014980
 11 H s       :     0.742249  s :     0.742249
      pz      :     0.024563  p :     0.077102
      px      :     0.024147
      py      :     0.028393
 12 O s       :     3.661988  s :     3.661988
      pz      :     1.857381  p :     4.744585
      px      :     1.585744
      py      :     1.301460
      dz2     :     0.001173  d :     0.008761
      dxz     :     0.001515
      dyz     :     0.000479
      dx2y2   :     0.000344
      dxy     :     0.005249
 13 H s       :     0.744064  s :     0.744064
      pz      :     0.019303  p :     0.072349
      px      :     0.024368
      py      :     0.028678
 14 H s       :     0.760286  s :     0.760286
      pz      :     0.020979  p :     0.070723
      px      :     0.020704
      py      :     0.029040
 15 O s       :     3.715357  s :     3.715357
      pz      :     1.430748  p :     4.800822
      px      :     1.516876
      py      :     1.853198
      dz2     :     0.002390  d :     0.008001
      dxz     :     0.000664
      dyz     :     0.001794
      dx2y2   :     0.002085
      dxy     :     0.001068
 16 H s       :     0.752275  s :     0.752275
      pz      :     0.017010  p :     0.071761
      px      :     0.039437
      py      :     0.015313
 17 H s       :     0.755488  s :     0.755488
      pz      :     0.034309  p :     0.068576
      px      :     0.014111
      py      :     0.020156
 18 O s       :     3.686935  s :     3.686935
      pz      :     1.322998  p :     4.677840
      px      :     1.449491
      py      :     1.905351
      dz2     :     0.003021  d :     0.009693
      dxz     :     0.002012
      dyz     :     0.000904
      dx2y2   :     0.002910
      dxy     :     0.000846
 19 H s       :     0.775569  s :     0.775569
      pz      :     0.017834  p :     0.075546
      px      :     0.040114
      py      :     0.017597
 20 H s       :     0.742611  s :     0.742611
      pz      :     0.035178  p :     0.071003
      px      :     0.015945
      py      :     0.019880


                     *******************************
                     * LOEWDIN POPULATION ANALYSIS *
                     *******************************

----------------------
LOEWDIN ATOMIC CHARGES
----------------------
   0 O :   -0.086196
   1 H :    0.108009
   2 H :    0.106150
   3 O :   -0.126651
   4 H :    0.043904
   5 H :    0.115103
   6 O :   -0.040947
   7 H :    0.031840
   8 H :    0.108207
   9 O :   -0.084549
  10 H :    0.089625
  11 H :    0.060198
  12 O :   -0.199487
  13 H :    0.074549
  14 H :    0.054420
  15 O :   -0.314785
  16 H :    0.048421
  17 H :    0.055287
  18 O :   -0.187517
  19 H :    0.050214
  20 H :    0.094206

-------------------------------
LOEWDIN REDUCED ORBITAL CHARGES
-------------------------------
  0 O s       :     3.414115  s :     3.414115
      pz      :     1.503837  p :     4.654471
      px      :     1.588621
      py      :     1.562013
      dz2     :     0.000894  d :     0.017610
      dxz     :     0.007357
      dyz     :     0.002510
      dx2y2   :     0.001254
      dxy     :     0.005595
  1 H s       :     0.713717  s :     0.713717
      pz      :     0.067469  p :     0.178274
      px      :     0.065888
      py      :     0.044918
  2 H s       :     0.711124  s :     0.711124
      pz      :     0.050857  p :     0.182726
      px      :     0.059633
      py      :     0.072236
  3 O s       :     3.412399  s :     3.412399
      pz      :     1.800259  p :     4.698845
      px      :     1.621716
      py      :     1.276871
      dz2     :     0.001115  d :     0.015406
      dxz     :     0.001895
      dyz     :     0.003782
      dx2y2   :     0.001228
      dxy     :     0.007388
  4 H s       :     0.746314  s :     0.746314
      pz      :     0.056424  p :     0.209782
      px      :     0.075477
      py      :     0.077881
  5 H s       :     0.712637  s :     0.712637
      pz      :     0.050539  p :     0.172260
      px      :     0.050262
      py      :     0.071459
  6 O s       :     3.365107  s :     3.365107
      pz      :     1.501223  p :     4.656707
      px      :     1.703820
      py      :     1.451665
      dz2     :     0.006966  d :     0.019133
      dxz     :     0.004122
      dyz     :     0.000190
      dx2y2   :     0.007350
      dxy     :     0.000504
  7 H s       :     0.751012  s :     0.751012
      pz      :     0.047361  p :     0.217149
      px      :     0.058293
      py      :     0.111495
  8 H s       :     0.706101  s :     0.706101
      pz      :     0.087597  p :     0.185692
      px      :     0.063187
      py      :     0.034908
  9 O s       :     3.358916  s :     3.358916
      pz      :     1.363261  p :     4.707971
      px      :     1.719429
      py      :     1.625281
      dz2     :     0.004749  d :     0.017662
      dxz     :     0.001621
      dyz     :     0.006023
      dx2y2   :     0.001278
      dxy     :     0.003991
 10 H s       :     0.732242  s :     0.732242
      pz      :     0.089342  p :     0.178133
      px      :     0.048152
      py      :     0.040639
 11 H s       :     0.728469  s :     0.728469
      pz      :     0.053402  p :     0.211333
      px      :     0.073048
      py      :     0.084883
 12 O s       :     3.404952  s :     3.404952
      pz      :     1.802543  p :     4.777496
      px      :     1.627304
      py      :     1.347650
      dz2     :     0.002165  d :     0.017039
      dxz     :     0.001738
      dyz     :     0.001692
      dx2y2   :     0.000224
      dxy     :     0.011220
 13 H s       :     0.733554  s :     0.733554
      pz      :     0.056416  p :     0.191897
      px      :     0.070243
      py      :     0.065238
 14 H s       :     0.755266  s :     0.755266
      pz      :     0.060447  p :     0.190314
      px      :     0.059701
      py      :     0.070166
 15 O s       :     3.483208  s :     3.483208
      pz      :     1.461047  p :     4.817793
      px      :     1.535737
      py      :     1.821009
      dz2     :     0.004657  d :     0.013784
      dxz     :     0.001120
      dyz     :     0.003348
      dx2y2   :     0.003522
      dxy     :     0.001138
 16 H s       :     0.741064  s :     0.741064
      pz      :     0.040519  p :     0.210516
      px      :     0.125676
      py      :     0.044321
 17 H s       :     0.756121  s :     0.756121
      pz      :     0.095614  p :     0.188593
      px      :     0.033549
      py      :     0.059430
 18 O s       :     3.436828  s :     3.436828
      pz      :     1.377701  p :     4.733101
      px      :     1.504391
      py      :     1.851009
      dz2     :     0.006674  d :     0.017587
      dxz     :     0.003502
      dyz     :     0.001804
      dx2y2   :     0.005255
      dxy     :     0.000352
 19 H s       :     0.748488  s :     0.748488
      pz      :     0.036298  p :     0.201298
      px      :     0.114417
      py      :     0.050584
 20 H s       :     0.725087  s :     0.725087
      pz      :     0.083811  p :     0.180707
      px      :     0.040796
      py      :     0.056100


                      *****************************
                      * MAYER POPULATION ANALYSIS *
                      *****************************

  NA   - Mulliken gross atomic population
  ZA   - Total nuclear charge
  QA   - Mulliken gross atomic charge
  VA   - Mayer's total valence
  BVA  - Mayer's bonded valence
  FA   - Mayer's free valence

  ATOM       NA         ZA         QA         VA         BVA        FA
  0 O      8.3038     8.0000    -0.3038     2.1794     2.1794    -0.0000
  1 H      0.7911     1.0000     0.2089     0.9958     0.9958     0.0000
  2 H      0.7882     1.0000     0.2118     0.9867     0.9867     0.0000
  3 O      8.3729     8.0000    -0.3729     2.0972     2.0972    -0.0000
  4 H      0.8229     1.0000     0.1771     1.0874     1.0874    -0.0000
  5 H      0.7781     1.0000     0.2219     0.9778     0.9778     0.0000
  6 O      8.2726     8.0000    -0.2726     2.1810     2.1810    -0.0000
  7 H      0.8568     1.0000     0.1432     1.0973     1.0973    -0.0000
  8 H      0.7912     1.0000     0.2088     0.9965     0.9965    -0.0000
  9 O      8.3290     8.0000    -0.3290     2.1161     2.1161    -0.0000
 10 H      0.7999     1.0000     0.2001     1.0363     1.0363    -0.0000
 11 H      0.8194     1.0000     0.1806     1.0161     1.0161    -0.0000
 12 O      8.4153     8.0000    -0.4153     1.9647     1.9647    -0.0000
 13 H      0.8164     1.0000     0.1836     1.0079     1.0079     0.0000
 14 H      0.8310     1.0000     0.1690     1.0814     1.0814     0.0000
 15 O      8.5242     8.0000    -0.5242     1.8789     1.8789    -0.0000
 16 H      0.8240     1.0000     0.1760     1.0766     1.0766     0.0000
 17 H      0.8241     1.0000     0.1759     1.0638     1.0638     0.0000
 18 O      8.3745     8.0000    -0.3745     2.0280     2.0280    -0.0000
 19 H      0.8511     1.0000     0.1489     1.0999     1.0999     0.0000
 20 H      0.8136     1.0000     0.1864     1.0061     1.0061    -0.0000

  Mayer bond orders larger than 0.100000
B(  0-O ,  1-H ) :   0.9662 B(  0-O ,  2-H ) :   0.9687 B(  0-O ,  7-H ) :   0.1123 
B(  0-O , 14-H ) :   0.1122 B(  3-O ,  4-H ) :   0.9136 B(  3-O ,  5-H ) :   0.9636 
B(  3-O , 16-H ) :   0.1901 B(  4-H ,  9-O ) :   0.1577 B(  6-O ,  7-H ) :   0.9449 
B(  6-O ,  8-H ) :   0.9703 B(  6-O , 17-H ) :   0.1177 B(  6-O , 19-H ) :   0.1219 
B(  9-O , 10-H ) :   0.9437 B(  9-O , 11-H ) :   0.9953 B( 12-O , 13-H ) :   0.9955 
B( 12-O , 14-H ) :   0.9487 B( 15-O , 16-H ) :   0.8887 B( 15-O , 17-H ) :   0.9391 
B( 18-O , 19-H ) :   0.9414 B( 18-O , 20-H ) :   0.9861 

-------
TIMINGS
-------

Total SCF time: 0 days 0 hours 0 min 11 sec 

Total time                  ....      11.373 sec
Sum of individual times     ....      10.840 sec  ( 95.3%)

Fock matrix formation       ....       9.899 sec  ( 87.0%)
  XC integration            ....       0.854 sec  (  8.6% of F)
    Basis function eval.    ....       0.362 sec  ( 42.4% of XC)
    Density eval.           ....       0.153 sec  ( 17.9% of XC)
    XC-Functional eval.     ....       0.084 sec  (  9.8% of XC)
    XC-Potential eval.      ....       0.169 sec  ( 19.8% of XC)
Diagonalization             ....       0.026 sec  (  0.2%)
Density matrix formation    ....       0.004 sec  (  0.0%)
Population analysis         ....       0.009 sec  (  0.1%)
Initial guess               ....       0.181 sec  (  1.6%)
Orbital Transformation      ....       0.000 sec  (  0.0%)
Orbital Orthonormalization  ....       0.000 sec  (  0.0%)
DIIS solution               ....       0.008 sec  (  0.1%)
SOSCF solution              ....       0.012 sec  (  0.1%)
Grid generation             ....       0.701 sec  (  6.2%)


-------------------------------------------------------------------------------
                          DFT DISPERSION CORRECTION                            
                                                                               
                              DFTD3 V3.1  Rev 1                                
                          USING Becke-Johnson damping                          
-------------------------------------------------------------------------------
The PBE0 functional is recognized
Active option DFTDOPT                   ...         4   

molecular C6(AA) [au] = 2181.563425 


            DFT-D V3
 parameters
 s6 scaling factor         :     1.0000 
 a1 scaling factor         :     0.4145 
 s8 scaling factor         :     1.2177 
 a2 scaling factor         :     4.8593 
 ad hoc parameters k1-k3   :    16.0000     1.3333    -4.0000 

 Edisp/kcal,au: -5.484129261887  -0.008739515344 
 E6   /kcal   :  -3.840240012 
 E8   /kcal   :  -1.643889250 
 % E8         :  29.975392113 

-------------------------   ----------------
Dispersion correction           -0.008739515
-------------------------   ----------------


-------------------------   --------------------
FINAL SINGLE POINT ENERGY      -534.062787405605
-------------------------   --------------------

[1615912939.228263] [comp0813:190726:0]            sys.c:618  UCX  ERROR shmget(size=2097152 flags=0xfb0) for mm_recv_desc failed: Operation not permitted, please check shared memory limits by 'ipcs -l'
[1615912939.233629] [comp0813:190728:0]            sys.c:618  UCX  ERROR shmget(size=2097152 flags=0xfb0) for mm_recv_desc failed: Operation not permitted, please check shared memory limits by 'ipcs -l'
[1615912939.252415] [comp0813:190727:0]            sys.c:618  UCX  ERROR shmget(size=2097152 flags=0xfb0) for mm_recv_desc failed: Operation not permitted, please check shared memory limits by 'ipcs -l'
[1615912939.265137] [comp0813:190729:0]            sys.c:618  UCX  ERROR shmget(size=2097152 flags=0xfb0) for mm_recv_desc failed: Operation not permitted, please check shared memory limits by 'ipcs -l'
[1615912939.281738] [comp0813:190728:0]            sys.c:618  UCX  ERROR shmget(size=2097152 flags=0xb80) for ucp_am_bufs failed: Operation not permitted, please check shared memory limits by 'ipcs -l'
[1615912939.281766] [comp0813:190726:0]            sys.c:618  UCX  ERROR shmget(size=2097152 flags=0xb80) for ucp_am_bufs failed: Operation not permitted, please check shared memory limits by 'ipcs -l'


           ************************************************************
           *        Program running with 4 parallel MPI-processes     *
           *              working on a common directory               *
           ************************************************************
------------------------------------------------------------------------------
                         ORCA SCF GRADIENT CALCULATION
------------------------------------------------------------------------------

[1615912939.284890] [comp0813:190727:0]            sys.c:618  UCX  ERROR shmget(size=2097152 flags=0xb80) for ucp_am_bufs failed: Operation not permitted, please check shared memory limits by 'ipcs -l'
Gradient of the Kohn-Sham DFT energy:
Kohn-Sham wavefunction type      ... RKS
Hartree-Fock exchange scaling    ...    0.250
Number of operators              ...    1
Number of atoms                  ...   21
Basis set dimensions             ...  168
Integral neglect threshold       ... 2.5e-11
Integral primitive cutoff        ... 2.5e-12

[1615912940.001158] [comp0813:190729:0]            sys.c:618  UCX  ERROR shmget(size=2097152 flags=0xb80) for ucp_am_bufs failed: Operation not permitted, please check shared memory limits by 'ipcs -l'
Nuclear repulsion gradient       ... done
One Electron Gradient            ... done
Pre-screening matrix             ... done
Starting the two electron gradient:
Two electron gradient done
Exchange-correlation gradient    ... done
Dispersion correction            ... done

------------------
CARTESIAN GRADIENT
------------------

   1   O   :    0.005336694   -0.006333690   -0.003871103
   2   H   :    0.000606853   -0.004407047   -0.000609261
   3   H   :   -0.002550991    0.009227448    0.004737912
   4   O   :   -0.003042878   -0.017280863    0.001186920
   5   H   :    0.010427548   -0.000550707    0.001846716
   6   H   :   -0.001787594    0.018258162   -0.003362769
   7   O   :   -0.002426043   -0.054436646   -0.005529056
   8   H   :    0.001995102    0.063119525   -0.017926288
   9   H   :   -0.008058561   -0.007307507    0.019008274
  10   O   :   -0.044891924   -0.068814824    0.047183834
  11   H   :    0.004721878    0.003435748   -0.010246442
  12   H   :    0.033559217    0.064829974   -0.031986140
  13   O   :    0.025579332   -0.026063322    0.004568917
  14   H   :   -0.021571982    0.013707327   -0.002331448
  15   H   :   -0.004052187    0.012468590   -0.000080434
  16   O   :    0.034514460    0.021737656    0.022857982
  17   H   :   -0.031215980   -0.007136476    0.001531849
  18   H   :   -0.007539713   -0.011369451   -0.024381477
  19   O   :   -0.011062886    0.005731720   -0.004245433
  20   H   :    0.011312515   -0.010195182   -0.004840935
  21   H   :    0.010147139    0.001379566    0.006488381

Difference to translation invariance:
           :    0.0000000000   -0.0000000000   -0.0000000000

Norm of the cartesian gradient     ...    0.1760679178
RMS gradient                       ...    0.0221824726
MAX gradient                       ...    0.0688148238

-------
TIMINGS
-------

Total SCF gradient time            ...        3.543 sec

One electron gradient       ....       0.040 sec  (  1.1%)
Prescreening matrices       ....       0.018 sec  (  0.5%)
Two electron gradient       ....       1.430 sec  ( 40.4%)
XC gradient                 ....       1.159 sec  ( 32.7%)
CPCM gradient               ....       0.608 sec  ( 17.2%)
   A-Matrix (El+Nuc)        ....       0.058 sec  (  1.6%)
   Potential                ....       0.550 sec  ( 15.5%)
------------------------------------------------------------------------------
                         ORCA GEOMETRY RELAXATION STEP
------------------------------------------------------------------------------

Reading the OPT-File                    .... done
Getting information on internals        .... done
Copying old internal coords+grads       .... done
Making the new internal coordinates     .... (new redundants).... done
Validating the new internal coordinates .... (new redundants).... done
Calculating the B-matrix                .... done
Calculating the G,G- and P matrices     .... done
Transforming gradient to internals      .... done
Projecting the internal gradient        .... done
Number of atoms                         ....  21
Number of internal coordinates          .... 194
Current Energy                          ....  -534.062787406 Eh
Current gradient norm                   ....     0.176067918 Eh/bohr
Maximum allowed component of the step   ....  0.300
Current trust radius                    ....  0.300
Evaluating the initial hessian          ....  (Almloef) done
Projecting the Hessian                  .... done
Forming the augmented Hessian           .... done
Diagonalizing the augmented Hessian     .... done
Last element of RFO vector              ....  0.951127408
Lowest eigenvalues of augmented Hessian:
 -0.027515982  0.005938291  0.008262306  0.008489701  0.010021214
Length of the computed step             ....  0.324665997
Warning: the length of the step is outside the trust region - taking restricted step instead
The input lambda is                     ....    -0.027516
   iter:   1  x=   -0.032946  g=    2.837784 f(x)=     0.015408
   iter:   2  x=   -0.034199  g=    1.992783 f(x)=     0.002497
   iter:   3  x=   -0.034247  g=    1.852150 f(x)=     0.000090
   iter:   4  x=   -0.034247  g=    1.847020 f(x)=     0.000000
   iter:   5  x=   -0.034247  g=    1.847012 f(x)=     0.000000
   iter:   6  x=   -0.034247  g=    1.847012 f(x)=     0.000000
The output lambda is                    ....    -0.034247 (6 iterations)
The final length of the internal step   ....  0.300000000
Converting the step to cartesian space:
 Initial RMS(Int)=    0.0215387448
Transforming coordinates:
 Iter   0:  RMS(Cart)=    0.0763621919 RMS(Int)=    0.4510478368
 Iter   1:  RMS(Cart)=    0.0013883470 RMS(Int)=    0.0009809332
 Iter   2:  RMS(Cart)=    0.0000680663 RMS(Int)=    0.0000551526
 Iter   3:  RMS(Cart)=    0.0000030225 RMS(Int)=    0.0000035592
 Iter   4:  RMS(Cart)=    0.0000003299 RMS(Int)=    0.0000002782
 Iter   5:  RMS(Cart)=    0.0000000226 RMS(Int)=    0.0000000206
done
Storing new coordinates                 .... done

                                .--------------------.
          ----------------------|Geometry convergence|-------------------------
          Item                value                   Tolerance       Converged
          ---------------------------------------------------------------------
          RMS gradient        0.0083285413            0.0005000000      NO
          MAX gradient        0.0791203205            0.0020000000      NO
          RMS step            0.0215387448            0.0070000000      NO
          MAX step            0.1165686698            0.0100000000      NO
          ........................................................
          Max(Bonds)      0.0617      Max(Angles)    2.94
          Max(Dihed)        1.68      Max(Improp)    0.00
          ---------------------------------------------------------------------

The optimization has not yet converged - more geometry cycles are needed


    ---------------------------------------------------------------------------
                         Redundant Internal Coordinates
                            (Angstroem and degrees)

        Definition                    Value    dE/dq     Step     New-Value
    ----------------------------------------------------------------------------
     1. B(H   1,O   0)                0.9664 -0.001438  0.0011    0.9674   
     2. B(H   2,O   0)                0.9579 -0.005452  0.0085    0.9664   
     3. B(H   4,O   3)                0.9745 -0.004201  0.0037    0.9782   
     4. B(H   5,O   3)                0.9830  0.015236 -0.0176    0.9653   
     5. B(H   7,O   6)                0.9187 -0.044729  0.0477    0.9665   
     6. B(H   7,O   0)                2.0328  0.002244 -0.0138    2.0190   
[...]
     25       0.007525   0.001128  -0.021784   0.003583  -0.012769  -0.005732
     26      -0.044138   0.003827   0.085218   0.025621   0.148900   0.062497
     27      -0.002930  -0.020945  -0.001163  -0.000047   0.000221  -0.000541
     28       0.029715   0.025717   0.005584  -0.000080   0.000464   0.000990
     29      -0.039880   0.013159  -0.005934   0.000070  -0.001291  -0.000272
     30      -0.134843   0.066455  -0.019907   0.000452  -0.005859  -0.000316
     31      -0.138255   0.094082  -0.018658   0.000335  -0.004243  -0.000034
     32       0.560056  -0.326028   0.079851  -0.001249   0.020597   0.001002
     33       0.176472   0.263464   0.037741  -0.000104   0.001468   0.009908
     34      -0.317526  -0.500154  -0.068354   0.000740  -0.002837  -0.015696
     35       0.056881   0.113568   0.013573  -0.000091   0.000471   0.003934
     36       0.016674   0.032985   0.014250  -0.000262   0.000105   0.004347
     37       0.004934   0.011309   0.004964  -0.000098  -0.000049  -0.004867
     38      -0.006518  -0.012485  -0.004787   0.000025   0.000718   0.052242
     39       0.007382   0.011353   0.002859   0.000092  -0.001553  -0.110772
     40       0.004663   0.009529   0.004316  -0.000095   0.000922   0.064166
     41      -0.009883  -0.033478  -0.023114   0.001367  -0.011878  -0.834392
     42      -0.259208  -0.522441  -0.228883   0.004156  -0.000027   0.037299
     43      -0.091202  -0.189906  -0.084849   0.001995  -0.000155   0.011916
     44       0.113905   0.229224   0.099264  -0.001788   0.000373   0.005960
     45      -0.000044   0.000847  -0.001350  -0.003766   0.000023   0.000154
     46       0.000027  -0.000797   0.001531   0.015382  -0.000017  -0.000304
     47      -0.000015   0.001230  -0.004869  -0.059609  -0.000048   0.000393
     48       0.000915  -0.012400   0.016263  -0.017635  -0.000665  -0.002010
     49      -0.000495   0.003258  -0.002709   0.007914   0.000189   0.000166
     50      -0.000567   0.007252  -0.010173  -0.015795   0.000402   0.001188
     51       0.000033  -0.000976   0.004754   0.083656   0.000289  -0.000612
     52      -0.000223   0.011006  -0.029879  -0.262442   0.000189   0.002177
     53       0.000871  -0.025162   0.079558   0.952079   0.000596  -0.007963
     54      -0.033008   0.023875  -0.018434   0.002782   0.011018  -0.000752
     55      -0.004915   0.002847  -0.001682  -0.000176   0.053028  -0.003039
     56      -0.000310   0.000852  -0.000257  -0.000161   0.028610  -0.001647
     57       0.527231  -0.385428   0.302523  -0.048895  -0.053118   0.005179
     58       0.090229  -0.063722   0.047797  -0.007095   0.013580  -0.000539
     59       0.029416  -0.023828   0.018203  -0.003330   0.008003  -0.000344
     60      -0.018102   0.013306  -0.010463   0.002242  -0.116675   0.006647
     61      -0.015543   0.018984  -0.022568   0.010101  -0.855097   0.048740
     62      -0.011420   0.011499  -0.013010   0.005506  -0.462172   0.026357
                  60         61         62    
      0       0.040002   0.001850  -0.017424
      1      -0.027463  -0.001325   0.011914
      2       0.000847  -0.000002  -0.000864
      3       0.018716   0.000728  -0.007274
      4       0.017057   0.001880  -0.002283
      5       0.018625   0.001396  -0.003836
      6      -0.653107  -0.030199   0.284047
      7       0.416571   0.019230  -0.181376
      8      -0.036664  -0.001727   0.015468
      9       0.000792  -0.014794   0.000286
     10      -0.003195   0.058031  -0.001165
     11       0.000902  -0.015934   0.000284
     12       0.001616  -0.027969   0.000722
     13      -0.000217  -0.001190   0.000438
     14       0.001231  -0.025343   0.000856
     15      -0.014717   0.266350  -0.005274
     16       0.050758  -0.916857   0.018104
     17      -0.015558   0.281203  -0.005571
     18      -0.009992  -0.001116  -0.026097
     19      -0.002101  -0.000330  -0.010178
     20       0.018122   0.002120   0.051436
     21      -0.004909  -0.001037  -0.031564
     22       0.005481   0.002178   0.088252
     23       0.006939   0.000110  -0.019078
     24       0.164116   0.018881   0.446372
     25       0.026320   0.002989   0.069430
     26      -0.292882  -0.033623  -0.794795
     27      -0.000305   0.000017   0.000120
     28       0.000688  -0.000426  -0.000059
     29      -0.000328  -0.000397  -0.000131
     30      -0.000914  -0.000582  -0.000926
     31      -0.000601  -0.001298  -0.000501
     32       0.003338   0.005932   0.002415
     33       0.006410  -0.002366  -0.001233
     34      -0.010009   0.004929   0.001531
     35       0.002455  -0.001450  -0.000368
     36       0.001261   0.000097   0.000224
     37      -0.003494  -0.000224   0.001031
     38       0.032349   0.001754  -0.007827
     39      -0.067710  -0.003659   0.016068
     40       0.038926   0.002151  -0.009101
     41      -0.507338  -0.027594   0.119305
     42       0.045838   0.002131  -0.019780
     43       0.015866   0.000935  -0.007376
     44      -0.005218  -0.000177   0.004949
     45      -0.000315   0.000954  -0.000019
     46       0.000656  -0.000035   0.000229
     47      -0.001090  -0.000908  -0.001928
     48       0.003764  -0.016670  -0.002594
     49      -0.000640   0.003208   0.000767
     50      -0.002425   0.005581   0.000775
     51       0.001584   0.000657   0.002611
     52      -0.005669  -0.002267  -0.006260
     53       0.021058   0.008149   0.029281
     54       0.001662   0.000005   0.002989
     55       0.005608  -0.000296   0.007819
     56       0.003006  -0.000203   0.004218
     57      -0.014103  -0.000853  -0.031051
     58       0.000344  -0.000254  -0.000815
     59       0.000542   0.000105  -0.000091
     60      -0.012030   0.000716  -0.016498
     61      -0.089116   0.005122  -0.123041
     62      -0.048150   0.002803  -0.066541


-----------
IR SPECTRUM
-----------

 Mode    freq (cm**-1)   T**2         TX         TY         TZ
-------------------------------------------------------------------
   6:        11.17   10.066991  ( -2.530303  -1.570297   1.094864)
   7:        25.11   12.393926  ( -0.254005   0.681010   3.444653)
   8:        38.67    8.608168  (  0.687525   2.735870  -0.806532)
   9:        51.37    3.236393  (  0.158964  -0.387066   1.749658)
  10:        62.39    3.913100  (  1.877676   0.373636  -0.497823)
  11:        72.85    1.287666  ( -0.144362   0.963574  -0.581679)
  12:       152.34    9.654248  ( -0.432539  -2.308123   2.034631)
  13:       211.12   43.647221  (  3.667086  -5.139821  -1.944722)
  14:       216.18    9.239296  ( -1.866493   0.836625  -2.248457)
  15:       223.43   31.605439  ( -4.732532   1.988222  -2.292501)
  16:       243.93    7.852364  (  0.606608   0.324668   2.716428)
  17:       249.24    9.715516  ( -3.032663   0.664170  -0.278118)
  18:       258.43  156.260513  (  1.002443 -11.637976  -4.451195)
  19:       277.33  146.123699  ( -9.689657  -5.709485   4.431257)
  20:       283.45   59.032989  (  6.359026  -0.990351   4.197020)
  21:       303.76   21.390531  ( -3.377858   3.022784   0.918359)
  22:       311.85  170.752161  ( -1.486777   5.592981  11.715811)
  23:       315.24  126.023159  (  2.650885 -10.334691  -3.491435)
  24:       336.52  111.729656  (  1.549881   3.725425  -9.769787)
  25:       356.29  131.593900  ( -2.540356   6.491243  -9.110667)
  26:       393.80   57.014078  ( -6.460738  -3.144722  -2.320272)
  27:       408.09   62.570587  ( -6.152060   3.722240   3.296617)
  28:       422.85  274.658768  (  5.292164  12.872383  -8.997417)
  29:       467.63   39.586353  ( -1.179119   1.086988   6.083953)
  30:       490.89  197.953764  ( -5.785601  -9.029607  -9.107512)
  31:       582.74  156.799032  ( -6.747259  -1.097261  10.491403)
  32:       630.17  340.769094  ( -9.135382 -14.701905  -6.416220)
  33:       656.63  111.724390  ( -4.823376   8.435934  -4.158659)
  34:       717.45  142.363883  ( -2.752632   7.598631  -8.777682)
  35:       761.93  223.583354  (  8.367482  -0.347528  12.387406)
  36:       815.55   75.877259  (  6.050385  -6.099810  -1.436112)
  37:       871.90  303.301951  ( -7.307572 -10.312417  11.981461)
  38:       926.88  306.928750  (  5.382410  16.643054   0.983451)
  39:       961.62  192.109298  ( -8.306272  -7.367361  -8.296814)
  40:      1051.97  202.772116  ( 12.515080   0.537253  -6.771724)
  41:      1101.10   40.003460  ( -0.374140  -4.118007   4.785969)
  42:      1585.90  130.632272  ( -1.403046  -5.058765 -10.152469)
  43:      1619.22  290.312294  (-16.324717   4.858772   0.456342)
  44:      1637.73   31.438960  (  0.019706  -4.050853  -3.876747)
  45:      1642.92    5.944559  (  0.330183  -1.940634  -1.438567)
  46:      1652.50  206.456849  (-11.476508   5.325734  -6.810520)
  47:      1675.44    1.911161  ( -0.822471   0.682152  -0.877138)
  48:      1685.12   78.250719  (  3.246395  -4.043057  -7.166961)
  49:      3081.64  508.052611  ( 22.181690  -3.999627  -0.168030)
  50:      3141.84  2841.713876  (-15.718630 -43.663945 -26.231631)
  51:      3263.12  1195.451073  (-29.172685   7.168165  17.117912)
  52:      3353.29  266.027832  (  5.747375  11.101208 -10.476579)
  53:      3386.80  2089.060045  (-43.937660   1.934847  12.441804)
  54:      3434.81  1759.035713  ( 12.944661 -24.366498  31.587105)
  55:      3446.85  655.742133  (-16.953669 -18.600154   4.727526)
  56:      3510.20  414.329903  ( -1.490925  19.995846  -3.503312)
  57:      3702.10  473.964104  (  0.200224  -1.838644  21.692012)
  58:      3866.45  123.949712  ( -4.111454 -10.020823  -2.574636)
  59:      3867.83  104.353594  (  5.703504  -2.640278  -8.053109)
  60:      3869.86  178.370142  ( -5.303355   7.866521  -9.400129)
  61:      3871.55   90.474630  (  1.191642  -9.380198   1.032713)
  62:      3873.60  139.839779  (  6.478042  -0.447067  -9.883060)

The first frequency considered to be a vibration is 6
The total number of vibrations considered is 57


--------------------------
THERMOCHEMISTRY AT 298.15K
--------------------------

Temperature         ... 298.15 K
Pressure            ... 1.00 atm
Total Mass          ... 126.10 AMU

Throughout the following assumptions are being made:
  (1) The electronic state is orbitally nondegenerate
  (2) There are no thermally accessible electronically excited states
  (3) Hindered rotations indicated by low frequency modes are not
      treated as such but are treated as vibrations and this may
      cause some error
  (4) All equations used are the standard statistical mechanics
      equations for an ideal gas
  (5) All vibrations are strictly harmonic

freq.      11.17  E(vib)   ...       0.58 
freq.      25.11  E(vib)   ...       0.56 
freq.      38.67  E(vib)   ...       0.54 
freq.      51.37  E(vib)   ...       0.52 
freq.      62.39  E(vib)   ...       0.51 
freq.      72.85  E(vib)   ...       0.49 
freq.     152.34  E(vib)   ...       0.40 
freq.     211.12  E(vib)   ...       0.34 
freq.     216.18  E(vib)   ...       0.34 
freq.     223.43  E(vib)   ...       0.33 
freq.     243.93  E(vib)   ...       0.31 
freq.     249.24  E(vib)   ...       0.31 
freq.     258.43  E(vib)   ...       0.30 
freq.     277.33  E(vib)   ...       0.28 
freq.     283.45  E(vib)   ...       0.28 
freq.     303.76  E(vib)   ...       0.26 
freq.     311.85  E(vib)   ...       0.25 
freq.     315.24  E(vib)   ...       0.25 
freq.     336.52  E(vib)   ...       0.24 
freq.     356.29  E(vib)   ...       0.22 
freq.     393.80  E(vib)   ...       0.20 
freq.     408.09  E(vib)   ...       0.19 
freq.     422.85  E(vib)   ...       0.18 
freq.     467.63  E(vib)   ...       0.16 
freq.     490.89  E(vib)   ...       0.14 
freq.     582.74  E(vib)   ...       0.11 
freq.     630.17  E(vib)   ...       0.09 
freq.     656.63  E(vib)   ...       0.08 
freq.     717.45  E(vib)   ...       0.07 
freq.     761.93  E(vib)   ...       0.06 
freq.     815.55  E(vib)   ...       0.05 
freq.     871.90  E(vib)   ...       0.04 
freq.     926.88  E(vib)   ...       0.03 
freq.     961.62  E(vib)   ...       0.03 
freq.    1051.97  E(vib)   ...       0.02 
freq.    1101.10  E(vib)   ...       0.02 
freq.    1585.90  E(vib)   ...       0.00 
freq.    1619.22  E(vib)   ...       0.00 
freq.    1637.73  E(vib)   ...       0.00 
freq.    1642.92  E(vib)   ...       0.00 
freq.    1652.50  E(vib)   ...       0.00 
freq.    1675.44  E(vib)   ...       0.00 
freq.    1685.12  E(vib)   ...       0.00 
freq.    3081.64  E(vib)   ...       0.00 
freq.    3141.84  E(vib)   ...       0.00 
freq.    3263.12  E(vib)   ...       0.00 
freq.    3353.29  E(vib)   ...       0.00 
freq.    3386.80  E(vib)   ...       0.00 
freq.    3434.81  E(vib)   ...       0.00 
freq.    3446.85  E(vib)   ...       0.00 
freq.    3510.20  E(vib)   ...       0.00 
freq.    3702.10  E(vib)   ...       0.00 
freq.    3866.45  E(vib)   ...       0.00 
freq.    3867.83  E(vib)   ...       0.00 
freq.    3869.86  E(vib)   ...       0.00 
freq.    3871.55  E(vib)   ...       0.00 
freq.    3873.60  E(vib)   ...       0.00 

------------
INNER ENERGY
------------

The inner energy is: U= E(el) + E(ZPE) + E(vib) + E(rot) + E(trans)
    E(el)   - is the total energy from the electronic structure calculation
              = E(kin-el) + E(nuc-el) + E(el-el) + E(nuc-nuc)
    E(ZPE)  - the the zero temperature vibrational energy from the frequency calculation
    E(vib)  - the the finite temperature correction to E(ZPE) due to population
              of excited vibrational states
    E(rot)  - is the rotational thermal energy
    E(trans)- is the translational thermal energy

Summary of contributions to the inner energy U:
Electronic energy                ...   -534.12395251 Eh
Zero point energy                ...      0.17412190 Eh     109.26 kcal/mol
Thermal vibrational correction   ...      0.01396584 Eh       8.76 kcal/mol
Thermal rotational correction    ...      0.00141627 Eh       0.89 kcal/mol
Thermal translational correction ...      0.00141627 Eh       0.89 kcal/mol
-----------------------------------------------------------------------
Total thermal energy                   -533.93303223 Eh


Summary of corrections to the electronic energy:
(perhaps to be used in another calculation)
Total thermal correction                  0.01679838 Eh      10.54 kcal/mol
Non-thermal (ZPE) correction              0.17412190 Eh     109.26 kcal/mol
-----------------------------------------------------------------------
Total correction                          0.19092028 Eh     119.80 kcal/mol


--------
ENTHALPY
--------

The enthalpy is H = U + kB*T
                kB is Boltzmann's constant
Total free energy                 ...   -533.93303223 Eh 
Thermal Enthalpy correction       ...      0.00094421 Eh       0.59 kcal/mol
-----------------------------------------------------------------------
Total Enthalpy                    ...   -533.93208802 Eh


Note: Only C1 symmetry has been detected, increase convergence thresholds 
      if your molecule has a higher symmetry. Symmetry factor of 1.0 is   
      used for the rotational entropy correction. 
 

Note: Rotational entropy computed according to Herzberg 
Infrared and Raman Spectra, Chapter V,1, Van Nostrand Reinhold, 1945 
Point Group:  C1, Symmetry Number:   1  
Rotational constants in cm-1:     0.038449     0.035088     0.033138 

Vibrational entropy computed according to the QRRHO of S. Grimme
Chem.Eur.J. 2012 18 9955


-------
ENTROPY
-------

The entropy contributions are T*S = T*(S(el)+S(vib)+S(rot)+S(trans))
     S(el)   - electronic entropy
     S(vib)  - vibrational entropy
     S(rot)  - rotational entropy
     S(trans)- translational entropy
The entropies will be listed as mutliplied by the temperature to get
units of energy

Electronic entropy                ...      0.00000000 Eh      0.00 kcal/mol
Vibrational entropy               ...      0.02547949 Eh     15.99 kcal/mol
Rotational entropy                ...      0.01423899 Eh      8.94 kcal/mol
Translational entropy             ...      0.01919974 Eh     12.05 kcal/mol
-----------------------------------------------------------------------
Final entropy term                ...      0.05891822 Eh     36.97 kcal/mol

In case the symmetry of your molecule has not been determined correctly
or in case you have a reason to use a different symmetry number we print 
out the resulting rotational entropy values for sn=1,12 :
 --------------------------------------------------------
|  sn= 1 | S(rot)=       0.01423899 Eh      8.94 kcal/mol|
|  sn= 2 | S(rot)=       0.01358454 Eh      8.52 kcal/mol|
|  sn= 3 | S(rot)=       0.01320170 Eh      8.28 kcal/mol|
|  sn= 4 | S(rot)=       0.01293008 Eh      8.11 kcal/mol|
|  sn= 5 | S(rot)=       0.01271939 Eh      7.98 kcal/mol|
|  sn= 6 | S(rot)=       0.01254725 Eh      7.87 kcal/mol|
|  sn= 7 | S(rot)=       0.01240170 Eh      7.78 kcal/mol|
|  sn= 8 | S(rot)=       0.01227562 Eh      7.70 kcal/mol|
|  sn= 9 | S(rot)=       0.01216441 Eh      7.63 kcal/mol|
|  sn=10 | S(rot)=       0.01206493 Eh      7.57 kcal/mol|
|  sn=11 | S(rot)=       0.01197494 Eh      7.51 kcal/mol|
|  sn=12 | S(rot)=       0.01189279 Eh      7.46 kcal/mol|
 --------------------------------------------------------


-------------------
GIBBS FREE ENERGY
-------------------

The Gibbs free energy is G = H - T*S

Total enthalpy                    ...   -533.93208802 Eh 
Total entropy correction          ...     -0.05891822 Eh    -36.97 kcal/mol
-----------------------------------------------------------------------
Final Gibbs free energy         ...   -533.99100624 Eh

For completeness - the Gibbs free energy minus the electronic energy
G-E(el)                           ...      0.13294627 Eh     83.42 kcal/mol

[1615914059.346968] [comp0813:223929:0]            sys.c:618  UCX  ERROR shmget(size=2097152 flags=0xfb0) for mm_recv_desc failed: Operation not permitted, please check shared memory limits by 'ipcs -l'
[1615914059.347863] [comp0813:223928:0]            sys.c:618  UCX  ERROR shmget(size=2097152 flags=0xfb0) for mm_recv_desc failed: Operation not permitted, please check shared memory limits by 'ipcs -l'
[1615914059.352390] [comp0813:223930:0]            sys.c:618  UCX  ERROR shmget(size=2097152 flags=0xfb0) for mm_recv_desc failed: Operation not permitted, please check shared memory limits by 'ipcs -l'
[1615914059.359098] [comp0813:223931:0]            sys.c:618  UCX  ERROR shmget(size=2097152 flags=0xfb0) for mm_recv_desc failed: Operation not permitted, please check shared memory limits by 'ipcs -l'
[1615914059.367126] [comp0813:223928:0]            sys.c:618  UCX  ERROR shmget(size=2097152 flags=0xb80) for ucp_am_bufs failed: Operation not permitted, please check shared memory limits by 'ipcs -l'
[1615914059.367684] [comp0813:223929:0]            sys.c:618  UCX  ERROR shmget(size=2097152 flags=0xb80) for ucp_am_bufs failed: Operation not permitted, please check shared memory limits by 'ipcs -l'
[1615914059.368193] [comp0813:223930:0]            sys.c:618  UCX  ERROR shmget(size=2097152 flags=0xb80) for ucp_am_bufs failed: Operation not permitted, please check shared memory limits by 'ipcs -l'
[1615914059.384560] [comp0813:223931:0]            sys.c:618  UCX  ERROR shmget(size=2097152 flags=0xb80) for ucp_am_bufs failed: Operation not permitted, please check shared memory limits by 'ipcs -l'

Timings for individual modules:

Sum of individual times         ...     1115.768 sec (=  18.596 min)
GTO integral calculation        ...       69.240 sec (=   1.154 min)   6.2 %
SCF iterations                  ...      499.987 sec (=   8.333 min)  44.8 %
SCF Gradient evaluation         ...      258.729 sec (=   4.312 min)  23.2 %
Geometry relaxation             ...       16.774 sec (=   0.280 min)   1.5 %
Analytical frequency calculation...      271.038 sec (=   4.517 min)  24.3 %
                             ****ORCA TERMINATED NORMALLY****
TOTAL RUN TIME: 0 days 0 hours 18 minutes 54 seconds 983 msec
